V -t * -v 1.0a5 -a 0
A -t * -n 1 -p 0 -o 0x7fffffff -c 30 -a 1
A -t * -h 1 -m 1073741823 -s 0
n -t * -a 4 -s 4 -S UP -v circle -c black -i black
n -t * -a 0 -s 0 -S UP -v circle -c black -i black
n -t * -a 5 -s 5 -S UP -v circle -c black -i black
n -t * -a 1 -s 1 -S UP -v circle -c black -i black
n -t * -a 2 -s 2 -S UP -v circle -c black -i black
n -t * -a 3 -s 3 -S UP -v circle -c black -i black
l -t * -s 0 -d 1 -S UP -r 1000000 -D 0.01 -c black
l -t * -s 1 -d 2 -S UP -r 1000000 -D 0.01 -c black
l -t * -s 2 -d 3 -S UP -r 1000000 -D 0.01 -c black
l -t * -s 3 -d 4 -S UP -r 1000000 -D 0.01 -c black
l -t * -s 4 -d 0 -S UP -r 1000000 -D 0.01 -c black
l -t * -s 5 -d 1 -S UP -r 1000000 -D 0.01 -c black
+ -t 0.5 -s 0 -d 1 -p tcp -e 40 -c 0 -i 0 -a 0 -x {0.0 5.0 0 ------- null}
- -t 0.5 -s 0 -d 1 -p tcp -e 40 -c 0 -i 0 -a 0 -x {0.0 5.0 0 ------- null}
h -t 0.5 -s 0 -d 1 -p tcp -e 40 -c 0 -i 0 -a 0 -x {0.0 5.0 -1 ------- null}
r -t 0.51032 -s 0 -d 1 -p tcp -e 40 -c 0 -i 0 -a 0 -x {0.0 5.0 0 ------- null}
+ -t 0.51032 -s 1 -d 5 -p tcp -e 40 -c 0 -i 0 -a 0 -x {0.0 5.0 0 ------- null}
- -t 0.51032 -s 1 -d 5 -p tcp -e 40 -c 0 -i 0 -a 0 -x {0.0 5.0 0 ------- null}
h -t 0.51032 -s 1 -d 5 -p tcp -e 40 -c 0 -i 0 -a 0 -x {0.0 5.0 -1 ------- null}
r -t 0.52064 -s 1 -d 5 -p tcp -e 40 -c 0 -i 0 -a 0 -x {0.0 5.0 0 ------- null}
+ -t 0.52064 -s 5 -d 1 -p ack -e 40 -c 0 -i 1 -a 0 -x {5.0 0.0 0 ------- null}
- -t 0.52064 -s 5 -d 1 -p ack -e 40 -c 0 -i 1 -a 0 -x {5.0 0.0 0 ------- null}
h -t 0.52064 -s 5 -d 1 -p ack -e 40 -c 0 -i 1 -a 0 -x {5.0 0.0 -1 ------- null}
r -t 0.53096 -s 5 -d 1 -p ack -e 40 -c 0 -i 1 -a 0 -x {5.0 0.0 0 ------- null}
+ -t 0.53096 -s 1 -d 0 -p ack -e 40 -c 0 -i 1 -a 0 -x {5.0 0.0 0 ------- null}
- -t 0.53096 -s 1 -d 0 -p ack -e 40 -c 0 -i 1 -a 0 -x {5.0 0.0 0 ------- null}
h -t 0.53096 -s 1 -d 0 -p ack -e 40 -c 0 -i 1 -a 0 -x {5.0 0.0 -1 ------- null}
r -t 0.54128 -s 1 -d 0 -p ack -e 40 -c 0 -i 1 -a 0 -x {5.0 0.0 0 ------- null}
+ -t 0.54128 -s 0 -d 1 -p tcp -e 1040 -c 0 -i 2 -a 0 -x {0.0 5.0 1 ------- null}
- -t 0.54128 -s 0 -d 1 -p tcp -e 1040 -c 0 -i 2 -a 0 -x {0.0 5.0 1 ------- null}
h -t 0.54128 -s 0 -d 1 -p tcp -e 1040 -c 0 -i 2 -a 0 -x {0.0 5.0 -1 ------- null}
+ -t 0.54128 -s 0 -d 1 -p tcp -e 1040 -c 0 -i 3 -a 0 -x {0.0 5.0 2 ------- null}
- -t 0.5496 -s 0 -d 1 -p tcp -e 1040 -c 0 -i 3 -a 0 -x {0.0 5.0 2 ------- null}
h -t 0.5496 -s 0 -d 1 -p tcp -e 1040 -c 0 -i 3 -a 0 -x {0.0 5.0 -1 ------- null}
r -t 0.5596 -s 0 -d 1 -p tcp -e 1040 -c 0 -i 2 -a 0 -x {0.0 5.0 1 ------- null}
+ -t 0.5596 -s 1 -d 5 -p tcp -e 1040 -c 0 -i 2 -a 0 -x {0.0 5.0 1 ------- null}
- -t 0.5596 -s 1 -d 5 -p tcp -e 1040 -c 0 -i 2 -a 0 -x {0.0 5.0 1 ------- null}
h -t 0.5596 -s 1 -d 5 -p tcp -e 1040 -c 0 -i 2 -a 0 -x {0.0 5.0 -1 ------- null}
r -t 0.56792 -s 0 -d 1 -p tcp -e 1040 -c 0 -i 3 -a 0 -x {0.0 5.0 2 ------- null}
+ -t 0.56792 -s 1 -d 5 -p tcp -e 1040 -c 0 -i 3 -a 0 -x {0.0 5.0 2 ------- null}
- -t 0.56792 -s 1 -d 5 -p tcp -e 1040 -c 0 -i 3 -a 0 -x {0.0 5.0 2 ------- null}
h -t 0.56792 -s 1 -d 5 -p tcp -e 1040 -c 0 -i 3 -a 0 -x {0.0 5.0 -1 ------- null}
r -t 0.57792 -s 1 -d 5 -p tcp -e 1040 -c 0 -i 2 -a 0 -x {0.0 5.0 1 ------- null}
r -t 0.58624 -s 1 -d 5 -p tcp -e 1040 -c 0 -i 3 -a 0 -x {0.0 5.0 2 ------- null}
+ -t 0.58624 -s 5 -d 1 -p ack -e 40 -c 0 -i 4 -a 0 -x {5.0 0.0 2 ------- null}
- -t 0.58624 -s 5 -d 1 -p ack -e 40 -c 0 -i 4 -a 0 -x {5.0 0.0 2 ------- null}
h -t 0.58624 -s 5 -d 1 -p ack -e 40 -c 0 -i 4 -a 0 -x {5.0 0.0 -1 ------- null}
r -t 0.59656 -s 5 -d 1 -p ack -e 40 -c 0 -i 4 -a 0 -x {5.0 0.0 2 ------- null}
+ -t 0.59656 -s 1 -d 0 -p ack -e 40 -c 0 -i 4 -a 0 -x {5.0 0.0 2 ------- null}
- -t 0.59656 -s 1 -d 0 -p ack -e 40 -c 0 -i 4 -a 0 -x {5.0 0.0 2 ------- null}
h -t 0.59656 -s 1 -d 0 -p ack -e 40 -c 0 -i 4 -a 0 -x {5.0 0.0 -1 ------- null}
r -t 0.60688 -s 1 -d 0 -p ack -e 40 -c 0 -i 4 -a 0 -x {5.0 0.0 2 ------- null}
+ -t 0.60688 -s 0 -d 1 -p tcp -e 1040 -c 0 -i 5 -a 0 -x {0.0 5.0 3 ------- null}
- -t 0.60688 -s 0 -d 1 -p tcp -e 1040 -c 0 -i 5 -a 0 -x {0.0 5.0 3 ------- null}
h -t 0.60688 -s 0 -d 1 -p tcp -e 1040 -c 0 -i 5 -a 0 -x {0.0 5.0 -1 ------- null}
+ -t 0.60688 -s 0 -d 1 -p tcp -e 1040 -c 0 -i 6 -a 0 -x {0.0 5.0 4 ------- null}
+ -t 0.60688 -s 0 -d 1 -p tcp -e 1040 -c 0 -i 7 -a 0 -x {0.0 5.0 5 ------- null}
- -t 0.6152 -s 0 -d 1 -p tcp -e 1040 -c 0 -i 6 -a 0 -x {0.0 5.0 4 ------- null}
h -t 0.6152 -s 0 -d 1 -p tcp -e 1040 -c 0 -i 6 -a 0 -x {0.0 5.0 -1 ------- null}
- -t 0.62352 -s 0 -d 1 -p tcp -e 1040 -c 0 -i 7 -a 0 -x {0.0 5.0 5 ------- null}
h -t 0.62352 -s 0 -d 1 -p tcp -e 1040 -c 0 -i 7 -a 0 -x {0.0 5.0 -1 ------- null}
r -t 0.6252 -s 0 -d 1 -p tcp -e 1040 -c 0 -i 5 -a 0 -x {0.0 5.0 3 ------- null}
+ -t 0.6252 -s 1 -d 5 -p tcp -e 1040 -c 0 -i 5 -a 0 -x {0.0 5.0 3 ------- null}
- -t 0.6252 -s 1 -d 5 -p tcp -e 1040 -c 0 -i 5 -a 0 -x {0.0 5.0 3 ------- null}
h -t 0.6252 -s 1 -d 5 -p tcp -e 1040 -c 0 -i 5 -a 0 -x {0.0 5.0 -1 ------- null}
r -t 0.63352 -s 0 -d 1 -p tcp -e 1040 -c 0 -i 6 -a 0 -x {0.0 5.0 4 ------- null}
+ -t 0.63352 -s 1 -d 5 -p tcp -e 1040 -c 0 -i 6 -a 0 -x {0.0 5.0 4 ------- null}
- -t 0.63352 -s 1 -d 5 -p tcp -e 1040 -c 0 -i 6 -a 0 -x {0.0 5.0 4 ------- null}
h -t 0.63352 -s 1 -d 5 -p tcp -e 1040 -c 0 -i 6 -a 0 -x {0.0 5.0 -1 ------- null}
r -t 0.64184 -s 0 -d 1 -p tcp -e 1040 -c 0 -i 7 -a 0 -x {0.0 5.0 5 ------- null}
+ -t 0.64184 -s 1 -d 5 -p tcp -e 1040 -c 0 -i 7 -a 0 -x {0.0 5.0 5 ------- null}
- -t 0.64184 -s 1 -d 5 -p tcp -e 1040 -c 0 -i 7 -a 0 -x {0.0 5.0 5 ------- null}
h -t 0.64184 -s 1 -d 5 -p tcp -e 1040 -c 0 -i 7 -a 0 -x {0.0 5.0 -1 ------- null}
r -t 0.64352 -s 1 -d 5 -p tcp -e 1040 -c 0 -i 5 -a 0 -x {0.0 5.0 3 ------- null}
r -t 0.65184 -s 1 -d 5 -p tcp -e 1040 -c 0 -i 6 -a 0 -x {0.0 5.0 4 ------- null}
+ -t 0.65184 -s 5 -d 1 -p ack -e 40 -c 0 -i 8 -a 0 -x {5.0 0.0 4 ------- null}
- -t 0.65184 -s 5 -d 1 -p ack -e 40 -c 0 -i 8 -a 0 -x {5.0 0.0 4 ------- null}
h -t 0.65184 -s 5 -d 1 -p ack -e 40 -c 0 -i 8 -a 0 -x {5.0 0.0 -1 ------- null}
r -t 0.66016 -s 1 -d 5 -p tcp -e 1040 -c 0 -i 7 -a 0 -x {0.0 5.0 5 ------- null}
r -t 0.66216 -s 5 -d 1 -p ack -e 40 -c 0 -i 8 -a 0 -x {5.0 0.0 4 ------- null}
+ -t 0.66216 -s 1 -d 0 -p ack -e 40 -c 0 -i 8 -a 0 -x {5.0 0.0 4 ------- null}
- -t 0.66216 -s 1 -d 0 -p ack -e 40 -c 0 -i 8 -a 0 -x {5.0 0.0 4 ------- null}
h -t 0.66216 -s 1 -d 0 -p ack -e 40 -c 0 -i 8 -a 0 -x {5.0 0.0 -1 ------- null}
r -t 0.67248 -s 1 -d 0 -p ack -e 40 -c 0 -i 8 -a 0 -x {5.0 0.0 4 ------- null}
+ -t 0.67248 -s 0 -d 1 -p tcp -e 1040 -c 0 -i 9 -a 0 -x {0.0 5.0 6 ------- null}
- -t 0.67248 -s 0 -d 1 -p tcp -e 1040 -c 0 -i 9 -a 0 -x {0.0 5.0 6 ------- null}
h -t 0.67248 -s 0 -d 1 -p tcp -e 1040 -c 0 -i 9 -a 0 -x {0.0 5.0 -1 ------- null}
+ -t 0.67248 -s 0 -d 1 -p tcp -e 1040 -c 0 -i 10 -a 0 -x {0.0 5.0 7 ------- null}
+ -t 0.67248 -s 0 -d 1 -p tcp -e 1040 -c 0 -i 11 -a 0 -x {0.0 5.0 8 ------- null}
- -t 0.6808 -s 0 -d 1 -p tcp -e 1040 -c 0 -i 10 -a 0 -x {0.0 5.0 7 ------- null}
h -t 0.6808 -s 0 -d 1 -p tcp -e 1040 -c 0 -i 10 -a 0 -x {0.0 5.0 -1 ------- null}
- -t 0.68912 -s 0 -d 1 -p tcp -e 1040 -c 0 -i 11 -a 0 -x {0.0 5.0 8 ------- null}
h -t 0.68912 -s 0 -d 1 -p tcp -e 1040 -c 0 -i 11 -a 0 -x {0.0 5.0 -1 ------- null}
r -t 0.6908 -s 0 -d 1 -p tcp -e 1040 -c 0 -i 9 -a 0 -x {0.0 5.0 6 ------- null}
+ -t 0.6908 -s 1 -d 5 -p tcp -e 1040 -c 0 -i 9 -a 0 -x {0.0 5.0 6 ------- null}
- -t 0.6908 -s 1 -d 5 -p tcp -e 1040 -c 0 -i 9 -a 0 -x {0.0 5.0 6 ------- null}
h -t 0.6908 -s 1 -d 5 -p tcp -e 1040 -c 0 -i 9 -a 0 -x {0.0 5.0 -1 ------- null}
r -t 0.69912 -s 0 -d 1 -p tcp -e 1040 -c 0 -i 10 -a 0 -x {0.0 5.0 7 ------- null}
+ -t 0.69912 -s 1 -d 5 -p tcp -e 1040 -c 0 -i 10 -a 0 -x {0.0 5.0 7 ------- null}
- -t 0.69912 -s 1 -d 5 -p tcp -e 1040 -c 0 -i 10 -a 0 -x {0.0 5.0 7 ------- null}
h -t 0.69912 -s 1 -d 5 -p tcp -e 1040 -c 0 -i 10 -a 0 -x {0.0 5.0 -1 ------- null}
r -t 0.70744 -s 0 -d 1 -p tcp -e 1040 -c 0 -i 11 -a 0 -x {0.0 5.0 8 ------- null}
+ -t 0.70744 -s 1 -d 5 -p tcp -e 1040 -c 0 -i 11 -a 0 -x {0.0 5.0 8 ------- null}
- -t 0.70744 -s 1 -d 5 -p tcp -e 1040 -c 0 -i 11 -a 0 -x {0.0 5.0 8 ------- null}
h -t 0.70744 -s 1 -d 5 -p tcp -e 1040 -c 0 -i 11 -a 0 -x {0.0 5.0 -1 ------- null}
r -t 0.70912 -s 1 -d 5 -p tcp -e 1040 -c 0 -i 9 -a 0 -x {0.0 5.0 6 ------- null}
+ -t 0.70912 -s 5 -d 1 -p ack -e 40 -c 0 -i 12 -a 0 -x {5.0 0.0 6 ------- null}
- -t 0.70912 -s 5 -d 1 -p ack -e 40 -c 0 -i 12 -a 0 -x {5.0 0.0 6 ------- null}
h -t 0.70912 -s 5 -d 1 -p ack -e 40 -c 0 -i 12 -a 0 -x {5.0 0.0 -1 ------- null}
r -t 0.71744 -s 1 -d 5 -p tcp -e 1040 -c 0 -i 10 -a 0 -x {0.0 5.0 7 ------- null}
r -t 0.71944 -s 5 -d 1 -p ack -e 40 -c 0 -i 12 -a 0 -x {5.0 0.0 6 ------- null}
+ -t 0.71944 -s 1 -d 0 -p ack -e 40 -c 0 -i 12 -a 0 -x {5.0 0.0 6 ------- null}
- -t 0.71944 -s 1 -d 0 -p ack -e 40 -c 0 -i 12 -a 0 -x {5.0 0.0 6 ------- null}
h -t 0.71944 -s 1 -d 0 -p ack -e 40 -c 0 -i 12 -a 0 -x {5.0 0.0 -1 ------- null}
r -t 0.72576 -s 1 -d 5 -p tcp -e 1040 -c 0 -i 11 -a 0 -x {0.0 5.0 8 ------- null}
+ -t 0.72576 -s 5 -d 1 -p ack -e 40 -c 0 -i 13 -a 0 -x {5.0 0.0 8 ------- null}
- -t 0.72576 -s 5 -d 1 -p ack -e 40 -c 0 -i 13 -a 0 -x {5.0 0.0 8 ------- null}
h -t 0.72576 -s 5 -d 1 -p ack -e 40 -c 0 -i 13 -a 0 -x {5.0 0.0 -1 ------- null}
r -t 0.72976 -s 1 -d 0 -p ack -e 40 -c 0 -i 12 -a 0 -x {5.0 0.0 6 ------- null}
+ -t 0.72976 -s 0 -d 1 -p tcp -e 1040 -c 0 -i 14 -a 0 -x {0.0 5.0 9 ------- null}
- -t 0.72976 -s 0 -d 1 -p tcp -e 1040 -c 0 -i 14 -a 0 -x {0.0 5.0 9 ------- null}
h -t 0.72976 -s 0 -d 1 -p tcp -e 1040 -c 0 -i 14 -a 0 -x {0.0 5.0 -1 ------- null}
+ -t 0.72976 -s 0 -d 1 -p tcp -e 1040 -c 0 -i 15 -a 0 -x {0.0 5.0 10 ------- null}
+ -t 0.72976 -s 0 -d 1 -p tcp -e 1040 -c 0 -i 16 -a 0 -x {0.0 5.0 11 ------- null}
r -t 0.73608 -s 5 -d 1 -p ack -e 40 -c 0 -i 13 -a 0 -x {5.0 0.0 8 ------- null}
+ -t 0.73608 -s 1 -d 0 -p ack -e 40 -c 0 -i 13 -a 0 -x {5.0 0.0 8 ------- null}
- -t 0.73608 -s 1 -d 0 -p ack -e 40 -c 0 -i 13 -a 0 -x {5.0 0.0 8 ------- null}
h -t 0.73608 -s 1 -d 0 -p ack -e 40 -c 0 -i 13 -a 0 -x {5.0 0.0 -1 ------- null}
- -t 0.73808 -s 0 -d 1 -p tcp -e 1040 -c 0 -i 15 -a 0 -x {0.0 5.0 10 ------- null}
h -t 0.73808 -s 0 -d 1 -p tcp -e 1040 -c 0 -i 15 -a 0 -x {0.0 5.0 -1 ------- null}
r -t 0.7464 -s 1 -d 0 -p ack -e 40 -c 0 -i 13 -a 0 -x {5.0 0.0 8 ------- null}
+ -t 0.7464 -s 0 -d 1 -p tcp -e 1040 -c 0 -i 17 -a 0 -x {0.0 5.0 12 ------- null}
+ -t 0.7464 -s 0 -d 1 -p tcp -e 1040 -c 0 -i 18 -a 0 -x {0.0 5.0 13 ------- null}
+ -t 0.7464 -s 0 -d 1 -p tcp -e 1040 -c 0 -i 19 -a 0 -x {0.0 5.0 14 ------- null}
- -t 0.7464 -s 0 -d 1 -p tcp -e 1040 -c 0 -i 16 -a 0 -x {0.0 5.0 11 ------- null}
h -t 0.7464 -s 0 -d 1 -p tcp -e 1040 -c 0 -i 16 -a 0 -x {0.0 5.0 -1 ------- null}
r -t 0.74808 -s 0 -d 1 -p tcp -e 1040 -c 0 -i 14 -a 0 -x {0.0 5.0 9 ------- null}
+ -t 0.74808 -s 1 -d 5 -p tcp -e 1040 -c 0 -i 14 -a 0 -x {0.0 5.0 9 ------- null}
- -t 0.74808 -s 1 -d 5 -p tcp -e 1040 -c 0 -i 14 -a 0 -x {0.0 5.0 9 ------- null}
h -t 0.74808 -s 1 -d 5 -p tcp -e 1040 -c 0 -i 14 -a 0 -x {0.0 5.0 -1 ------- null}
- -t 0.75472 -s 0 -d 1 -p tcp -e 1040 -c 0 -i 17 -a 0 -x {0.0 5.0 12 ------- null}
h -t 0.75472 -s 0 -d 1 -p tcp -e 1040 -c 0 -i 17 -a 0 -x {0.0 5.0 -1 ------- null}
r -t 0.7564 -s 0 -d 1 -p tcp -e 1040 -c 0 -i 15 -a 0 -x {0.0 5.0 10 ------- null}
+ -t 0.7564 -s 1 -d 5 -p tcp -e 1040 -c 0 -i 15 -a 0 -x {0.0 5.0 10 ------- null}
- -t 0.7564 -s 1 -d 5 -p tcp -e 1040 -c 0 -i 15 -a 0 -x {0.0 5.0 10 ------- null}
h -t 0.7564 -s 1 -d 5 -p tcp -e 1040 -c 0 -i 15 -a 0 -x {0.0 5.0 -1 ------- null}
- -t 0.76304 -s 0 -d 1 -p tcp -e 1040 -c 0 -i 18 -a 0 -x {0.0 5.0 13 ------- null}
h -t 0.76304 -s 0 -d 1 -p tcp -e 1040 -c 0 -i 18 -a 0 -x {0.0 5.0 -1 ------- null}
r -t 0.76472 -s 0 -d 1 -p tcp -e 1040 -c 0 -i 16 -a 0 -x {0.0 5.0 11 ------- null}
+ -t 0.76472 -s 1 -d 5 -p tcp -e 1040 -c 0 -i 16 -a 0 -x {0.0 5.0 11 ------- null}
- -t 0.76472 -s 1 -d 5 -p tcp -e 1040 -c 0 -i 16 -a 0 -x {0.0 5.0 11 ------- null}
h -t 0.76472 -s 1 -d 5 -p tcp -e 1040 -c 0 -i 16 -a 0 -x {0.0 5.0 -1 ------- null}
r -t 0.7664 -s 1 -d 5 -p tcp -e 1040 -c 0 -i 14 -a 0 -x {0.0 5.0 9 ------- null}
- -t 0.77136 -s 0 -d 1 -p tcp -e 1040 -c 0 -i 19 -a 0 -x {0.0 5.0 14 ------- null}
h -t 0.77136 -s 0 -d 1 -p tcp -e 1040 -c 0 -i 19 -a 0 -x {0.0 5.0 -1 ------- null}
r -t 0.77304 -s 0 -d 1 -p tcp -e 1040 -c 0 -i 17 -a 0 -x {0.0 5.0 12 ------- null}
+ -t 0.77304 -s 1 -d 5 -p tcp -e 1040 -c 0 -i 17 -a 0 -x {0.0 5.0 12 ------- null}
- -t 0.77304 -s 1 -d 5 -p tcp -e 1040 -c 0 -i 17 -a 0 -x {0.0 5.0 12 ------- null}
h -t 0.77304 -s 1 -d 5 -p tcp -e 1040 -c 0 -i 17 -a 0 -x {0.0 5.0 -1 ------- null}
r -t 0.77472 -s 1 -d 5 -p tcp -e 1040 -c 0 -i 15 -a 0 -x {0.0 5.0 10 ------- null}
+ -t 0.77472 -s 5 -d 1 -p ack -e 40 -c 0 -i 20 -a 0 -x {5.0 0.0 10 ------- null}
- -t 0.77472 -s 5 -d 1 -p ack -e 40 -c 0 -i 20 -a 0 -x {5.0 0.0 10 ------- null}
h -t 0.77472 -s 5 -d 1 -p ack -e 40 -c 0 -i 20 -a 0 -x {5.0 0.0 -1 ------- null}
r -t 0.78136 -s 0 -d 1 -p tcp -e 1040 -c 0 -i 18 -a 0 -x {0.0 5.0 13 ------- null}
+ -t 0.78136 -s 1 -d 5 -p tcp -e 1040 -c 0 -i 18 -a 0 -x {0.0 5.0 13 ------- null}
- -t 0.78136 -s 1 -d 5 -p tcp -e 1040 -c 0 -i 18 -a 0 -x {0.0 5.0 13 ------- null}
h -t 0.78136 -s 1 -d 5 -p tcp -e 1040 -c 0 -i 18 -a 0 -x {0.0 5.0 -1 ------- null}
r -t 0.78304 -s 1 -d 5 -p tcp -e 1040 -c 0 -i 16 -a 0 -x {0.0 5.0 11 ------- null}
r -t 0.78504 -s 5 -d 1 -p ack -e 40 -c 0 -i 20 -a 0 -x {5.0 0.0 10 ------- null}
+ -t 0.78504 -s 1 -d 0 -p ack -e 40 -c 0 -i 20 -a 0 -x {5.0 0.0 10 ------- null}
- -t 0.78504 -s 1 -d 0 -p ack -e 40 -c 0 -i 20 -a 0 -x {5.0 0.0 10 ------- null}
h -t 0.78504 -s 1 -d 0 -p ack -e 40 -c 0 -i 20 -a 0 -x {5.0 0.0 -1 ------- null}
r -t 0.78968 -s 0 -d 1 -p tcp -e 1040 -c 0 -i 19 -a 0 -x {0.0 5.0 14 ------- null}
+ -t 0.78968 -s 1 -d 5 -p tcp -e 1040 -c 0 -i 19 -a 0 -x {0.0 5.0 14 ------- null}
- -t 0.78968 -s 1 -d 5 -p tcp -e 1040 -c 0 -i 19 -a 0 -x {0.0 5.0 14 ------- null}
h -t 0.78968 -s 1 -d 5 -p tcp -e 1040 -c 0 -i 19 -a 0 -x {0.0 5.0 -1 ------- null}
r -t 0.79136 -s 1 -d 5 -p tcp -e 1040 -c 0 -i 17 -a 0 -x {0.0 5.0 12 ------- null}
+ -t 0.79136 -s 5 -d 1 -p ack -e 40 -c 0 -i 21 -a 0 -x {5.0 0.0 12 ------- null}
- -t 0.79136 -s 5 -d 1 -p ack -e 40 -c 0 -i 21 -a 0 -x {5.0 0.0 12 ------- null}
h -t 0.79136 -s 5 -d 1 -p ack -e 40 -c 0 -i 21 -a 0 -x {5.0 0.0 -1 ------- null}
r -t 0.79536 -s 1 -d 0 -p ack -e 40 -c 0 -i 20 -a 0 -x {5.0 0.0 10 ------- null}
+ -t 0.79536 -s 0 -d 1 -p tcp -e 1040 -c 0 -i 22 -a 0 -x {0.0 5.0 15 ------- null}
- -t 0.79536 -s 0 -d 1 -p tcp -e 1040 -c 0 -i 22 -a 0 -x {0.0 5.0 15 ------- null}
h -t 0.79536 -s 0 -d 1 -p tcp -e 1040 -c 0 -i 22 -a 0 -x {0.0 5.0 -1 ------- null}
+ -t 0.79536 -s 0 -d 1 -p tcp -e 1040 -c 0 -i 23 -a 0 -x {0.0 5.0 16 ------- null}
+ -t 0.79536 -s 0 -d 1 -p tcp -e 1040 -c 0 -i 24 -a 0 -x {0.0 5.0 17 ------- null}
r -t 0.79968 -s 1 -d 5 -p tcp -e 1040 -c 0 -i 18 -a 0 -x {0.0 5.0 13 ------- null}
r -t 0.80168 -s 5 -d 1 -p ack -e 40 -c 0 -i 21 -a 0 -x {5.0 0.0 12 ------- null}
+ -t 0.80168 -s 1 -d 0 -p ack -e 40 -c 0 -i 21 -a 0 -x {5.0 0.0 12 ------- null}
- -t 0.80168 -s 1 -d 0 -p ack -e 40 -c 0 -i 21 -a 0 -x {5.0 0.0 12 ------- null}
h -t 0.80168 -s 1 -d 0 -p ack -e 40 -c 0 -i 21 -a 0 -x {5.0 0.0 -1 ------- null}
- -t 0.80368 -s 0 -d 1 -p tcp -e 1040 -c 0 -i 23 -a 0 -x {0.0 5.0 16 ------- null}
h -t 0.80368 -s 0 -d 1 -p tcp -e 1040 -c 0 -i 23 -a 0 -x {0.0 5.0 -1 ------- null}
r -t 0.808 -s 1 -d 5 -p tcp -e 1040 -c 0 -i 19 -a 0 -x {0.0 5.0 14 ------- null}
+ -t 0.808 -s 5 -d 1 -p ack -e 40 -c 0 -i 25 -a 0 -x {5.0 0.0 14 ------- null}
- -t 0.808 -s 5 -d 1 -p ack -e 40 -c 0 -i 25 -a 0 -x {5.0 0.0 14 ------- null}
h -t 0.808 -s 5 -d 1 -p ack -e 40 -c 0 -i 25 -a 0 -x {5.0 0.0 -1 ------- null}
r -t 0.812 -s 1 -d 0 -p ack -e 40 -c 0 -i 21 -a 0 -x {5.0 0.0 12 ------- null}
+ -t 0.812 -s 0 -d 1 -p tcp -e 1040 -c 0 -i 26 -a 0 -x {0.0 5.0 18 ------- null}
+ -t 0.812 -s 0 -d 1 -p tcp -e 1040 -c 0 -i 27 -a 0 -x {0.0 5.0 19 ------- null}
+ -t 0.812 -s 0 -d 1 -p tcp -e 1040 -c 0 -i 28 -a 0 -x {0.0 5.0 20 ------- null}
- -t 0.812 -s 0 -d 1 -p tcp -e 1040 -c 0 -i 24 -a 0 -x {0.0 5.0 17 ------- null}
h -t 0.812 -s 0 -d 1 -p tcp -e 1040 -c 0 -i 24 -a 0 -x {0.0 5.0 -1 ------- null}
r -t 0.81368 -s 0 -d 1 -p tcp -e 1040 -c 0 -i 22 -a 0 -x {0.0 5.0 15 ------- null}
+ -t 0.81368 -s 1 -d 5 -p tcp -e 1040 -c 0 -i 22 -a 0 -x {0.0 5.0 15 ------- null}
- -t 0.81368 -s 1 -d 5 -p tcp -e 1040 -c 0 -i 22 -a 0 -x {0.0 5.0 15 ------- null}
h -t 0.81368 -s 1 -d 5 -p tcp -e 1040 -c 0 -i 22 -a 0 -x {0.0 5.0 -1 ------- null}
r -t 0.81832 -s 5 -d 1 -p ack -e 40 -c 0 -i 25 -a 0 -x {5.0 0.0 14 ------- null}
+ -t 0.81832 -s 1 -d 0 -p ack -e 40 -c 0 -i 25 -a 0 -x {5.0 0.0 14 ------- null}
- -t 0.81832 -s 1 -d 0 -p ack -e 40 -c 0 -i 25 -a 0 -x {5.0 0.0 14 ------- null}
h -t 0.81832 -s 1 -d 0 -p ack -e 40 -c 0 -i 25 -a 0 -x {5.0 0.0 -1 ------- null}
- -t 0.82032 -s 0 -d 1 -p tcp -e 1040 -c 0 -i 26 -a 0 -x {0.0 5.0 18 ------- null}
h -t 0.82032 -s 0 -d 1 -p tcp -e 1040 -c 0 -i 26 -a 0 -x {0.0 5.0 -1 ------- null}
r -t 0.822 -s 0 -d 1 -p tcp -e 1040 -c 0 -i 23 -a 0 -x {0.0 5.0 16 ------- null}
+ -t 0.822 -s 1 -d 5 -p tcp -e 1040 -c 0 -i 23 -a 0 -x {0.0 5.0 16 ------- null}
- -t 0.822 -s 1 -d 5 -p tcp -e 1040 -c 0 -i 23 -a 0 -x {0.0 5.0 16 ------- null}
h -t 0.822 -s 1 -d 5 -p tcp -e 1040 -c 0 -i 23 -a 0 -x {0.0 5.0 -1 ------- null}
r -t 0.82864 -s 1 -d 0 -p ack -e 40 -c 0 -i 25 -a 0 -x {5.0 0.0 14 ------- null}
+ -t 0.82864 -s 0 -d 1 -p tcp -e 1040 -c 0 -i 29 -a 0 -x {0.0 5.0 21 ------- null}
+ -t 0.82864 -s 0 -d 1 -p tcp -e 1040 -c 0 -i 30 -a 0 -x {0.0 5.0 22 ------- null}
+ -t 0.82864 -s 0 -d 1 -p tcp -e 1040 -c 0 -i 31 -a 0 -x {0.0 5.0 23 ------- null}
- -t 0.82864 -s 0 -d 1 -p tcp -e 1040 -c 0 -i 27 -a 0 -x {0.0 5.0 19 ------- null}
h -t 0.82864 -s 0 -d 1 -p tcp -e 1040 -c 0 -i 27 -a 0 -x {0.0 5.0 -1 ------- null}
r -t 0.83032 -s 0 -d 1 -p tcp -e 1040 -c 0 -i 24 -a 0 -x {0.0 5.0 17 ------- null}
+ -t 0.83032 -s 1 -d 5 -p tcp -e 1040 -c 0 -i 24 -a 0 -x {0.0 5.0 17 ------- null}
- -t 0.83032 -s 1 -d 5 -p tcp -e 1040 -c 0 -i 24 -a 0 -x {0.0 5.0 17 ------- null}
h -t 0.83032 -s 1 -d 5 -p tcp -e 1040 -c 0 -i 24 -a 0 -x {0.0 5.0 -1 ------- null}
r -t 0.832 -s 1 -d 5 -p tcp -e 1040 -c 0 -i 22 -a 0 -x {0.0 5.0 15 ------- null}
- -t 0.83696 -s 0 -d 1 -p tcp -e 1040 -c 0 -i 28 -a 0 -x {0.0 5.0 20 ------- null}
h -t 0.83696 -s 0 -d 1 -p tcp -e 1040 -c 0 -i 28 -a 0 -x {0.0 5.0 -1 ------- null}
r -t 0.83864 -s 0 -d 1 -p tcp -e 1040 -c 0 -i 26 -a 0 -x {0.0 5.0 18 ------- null}
+ -t 0.83864 -s 1 -d 5 -p tcp -e 1040 -c 0 -i 26 -a 0 -x {0.0 5.0 18 ------- null}
- -t 0.83864 -s 1 -d 5 -p tcp -e 1040 -c 0 -i 26 -a 0 -x {0.0 5.0 18 ------- null}
h -t 0.83864 -s 1 -d 5 -p tcp -e 1040 -c 0 -i 26 -a 0 -x {0.0 5.0 -1 ------- null}
r -t 0.84032 -s 1 -d 5 -p tcp -e 1040 -c 0 -i 23 -a 0 -x {0.0 5.0 16 ------- null}
+ -t 0.84032 -s 5 -d 1 -p ack -e 40 -c 0 -i 32 -a 0 -x {5.0 0.0 16 ------- null}
- -t 0.84032 -s 5 -d 1 -p ack -e 40 -c 0 -i 32 -a 0 -x {5.0 0.0 16 ------- null}
h -t 0.84032 -s 5 -d 1 -p ack -e 40 -c 0 -i 32 -a 0 -x {5.0 0.0 -1 ------- null}
- -t 0.84528 -s 0 -d 1 -p tcp -e 1040 -c 0 -i 29 -a 0 -x {0.0 5.0 21 ------- null}
h -t 0.84528 -s 0 -d 1 -p tcp -e 1040 -c 0 -i 29 -a 0 -x {0.0 5.0 -1 ------- null}
r -t 0.84696 -s 0 -d 1 -p tcp -e 1040 -c 0 -i 27 -a 0 -x {0.0 5.0 19 ------- null}
+ -t 0.84696 -s 1 -d 5 -p tcp -e 1040 -c 0 -i 27 -a 0 -x {0.0 5.0 19 ------- null}
- -t 0.84696 -s 1 -d 5 -p tcp -e 1040 -c 0 -i 27 -a 0 -x {0.0 5.0 19 ------- null}
h -t 0.84696 -s 1 -d 5 -p tcp -e 1040 -c 0 -i 27 -a 0 -x {0.0 5.0 -1 ------- null}
r -t 0.84864 -s 1 -d 5 -p tcp -e 1040 -c 0 -i 24 -a 0 -x {0.0 5.0 17 ------- null}
r -t 0.85064 -s 5 -d 1 -p ack -e 40 -c 0 -i 32 -a 0 -x {5.0 0.0 16 ------- null}
+ -t 0.85064 -s 1 -d 0 -p ack -e 40 -c 0 -i 32 -a 0 -x {5.0 0.0 16 ------- null}
- -t 0.85064 -s 1 -d 0 -p ack -e 40 -c 0 -i 32 -a 0 -x {5.0 0.0 16 ------- null}
h -t 0.85064 -s 1 -d 0 -p ack -e 40 -c 0 -i 32 -a 0 -x {5.0 0.0 -1 ------- null}
- -t 0.8536 -s 0 -d 1 -p tcp -e 1040 -c 0 -i 30 -a 0 -x {0.0 5.0 22 ------- null}
h -t 0.8536 -s 0 -d 1 -p tcp -e 1040 -c 0 -i 30 -a 0 -x {0.0 5.0 -1 ------- null}
r -t 0.85528 -s 0 -d 1 -p tcp -e 1040 -c 0 -i 28 -a 0 -x {0.0 5.0 20 ------- null}
+ -t 0.85528 -s 1 -d 5 -p tcp -e 1040 -c 0 -i 28 -a 0 -x {0.0 5.0 20 ------- null}
- -t 0.85528 -s 1 -d 5 -p tcp -e 1040 -c 0 -i 28 -a 0 -x {0.0 5.0 20 ------- null}
h -t 0.85528 -s 1 -d 5 -p tcp -e 1040 -c 0 -i 28 -a 0 -x {0.0 5.0 -1 ------- null}
r -t 0.85696 -s 1 -d 5 -p tcp -e 1040 -c 0 -i 26 -a 0 -x {0.0 5.0 18 ------- null}
+ -t 0.85696 -s 5 -d 1 -p ack -e 40 -c 0 -i 33 -a 0 -x {5.0 0.0 18 ------- null}
- -t 0.85696 -s 5 -d 1 -p ack -e 40 -c 0 -i 33 -a 0 -x {5.0 0.0 18 ------- null}
h -t 0.85696 -s 5 -d 1 -p ack -e 40 -c 0 -i 33 -a 0 -x {5.0 0.0 -1 ------- null}
r -t 0.86096 -s 1 -d 0 -p ack -e 40 -c 0 -i 32 -a 0 -x {5.0 0.0 16 ------- null}
+ -t 0.86096 -s 0 -d 1 -p tcp -e 1040 -c 0 -i 34 -a 0 -x {0.0 5.0 24 ------- null}
+ -t 0.86096 -s 0 -d 1 -p tcp -e 1040 -c 0 -i 35 -a 0 -x {0.0 5.0 25 ------- null}
+ -t 0.86096 -s 0 -d 1 -p tcp -e 1040 -c 0 -i 36 -a 0 -x {0.0 5.0 26 ------- null}
- -t 0.86192 -s 0 -d 1 -p tcp -e 1040 -c 0 -i 31 -a 0 -x {0.0 5.0 23 ------- null}
h -t 0.86192 -s 0 -d 1 -p tcp -e 1040 -c 0 -i 31 -a 0 -x {0.0 5.0 -1 ------- null}
r -t 0.8636 -s 0 -d 1 -p tcp -e 1040 -c 0 -i 29 -a 0 -x {0.0 5.0 21 ------- null}
+ -t 0.8636 -s 1 -d 5 -p tcp -e 1040 -c 0 -i 29 -a 0 -x {0.0 5.0 21 ------- null}
- -t 0.8636 -s 1 -d 5 -p tcp -e 1040 -c 0 -i 29 -a 0 -x {0.0 5.0 21 ------- null}
h -t 0.8636 -s 1 -d 5 -p tcp -e 1040 -c 0 -i 29 -a 0 -x {0.0 5.0 -1 ------- null}
r -t 0.86528 -s 1 -d 5 -p tcp -e 1040 -c 0 -i 27 -a 0 -x {0.0 5.0 19 ------- null}
r -t 0.86728 -s 5 -d 1 -p ack -e 40 -c 0 -i 33 -a 0 -x {5.0 0.0 18 ------- null}
+ -t 0.86728 -s 1 -d 0 -p ack -e 40 -c 0 -i 33 -a 0 -x {5.0 0.0 18 ------- null}
- -t 0.86728 -s 1 -d 0 -p ack -e 40 -c 0 -i 33 -a 0 -x {5.0 0.0 18 ------- null}
h -t 0.86728 -s 1 -d 0 -p ack -e 40 -c 0 -i 33 -a 0 -x {5.0 0.0 -1 ------- null}
- -t 0.87024 -s 0 -d 1 -p tcp -e 1040 -c 0 -i 34 -a 0 -x {0.0 5.0 24 ------- null}
h -t 0.87024 -s 0 -d 1 -p tcp -e 1040 -c 0 -i 34 -a 0 -x {0.0 5.0 -1 ------- null}
r -t 0.87192 -s 0 -d 1 -p tcp -e 1040 -c 0 -i 30 -a 0 -x {0.0 5.0 22 ------- null}
+ -t 0.87192 -s 1 -d 5 -p tcp -e 1040 -c 0 -i 30 -a 0 -x {0.0 5.0 22 ------- null}
- -t 0.87192 -s 1 -d 5 -p tcp -e 1040 -c 0 -i 30 -a 0 -x {0.0 5.0 22 ------- null}
h -t 0.87192 -s 1 -d 5 -p tcp -e 1040 -c 0 -i 30 -a 0 -x {0.0 5.0 -1 ------- null}
r -t 0.8736 -s 1 -d 5 -p tcp -e 1040 -c 0 -i 28 -a 0 -x {0.0 5.0 20 ------- null}
+ -t 0.8736 -s 5 -d 1 -p ack -e 40 -c 0 -i 37 -a 0 -x {5.0 0.0 20 ------- null}
- -t 0.8736 -s 5 -d 1 -p ack -e 40 -c 0 -i 37 -a 0 -x {5.0 0.0 20 ------- null}
h -t 0.8736 -s 5 -d 1 -p ack -e 40 -c 0 -i 37 -a 0 -x {5.0 0.0 -1 ------- null}
r -t 0.8776 -s 1 -d 0 -p ack -e 40 -c 0 -i 33 -a 0 -x {5.0 0.0 18 ------- null}
+ -t 0.8776 -s 0 -d 1 -p tcp -e 1040 -c 0 -i 38 -a 0 -x {0.0 5.0 27 ------- null}
+ -t 0.8776 -s 0 -d 1 -p tcp -e 1040 -c 0 -i 39 -a 0 -x {0.0 5.0 28 ------- null}
+ -t 0.8776 -s 0 -d 1 -p tcp -e 1040 -c 0 -i 40 -a 0 -x {0.0 5.0 29 ------- null}
- -t 0.87856 -s 0 -d 1 -p tcp -e 1040 -c 0 -i 35 -a 0 -x {0.0 5.0 25 ------- null}
h -t 0.87856 -s 0 -d 1 -p tcp -e 1040 -c 0 -i 35 -a 0 -x {0.0 5.0 -1 ------- null}
r -t 0.88024 -s 0 -d 1 -p tcp -e 1040 -c 0 -i 31 -a 0 -x {0.0 5.0 23 ------- null}
+ -t 0.88024 -s 1 -d 5 -p tcp -e 1040 -c 0 -i 31 -a 0 -x {0.0 5.0 23 ------- null}
- -t 0.88024 -s 1 -d 5 -p tcp -e 1040 -c 0 -i 31 -a 0 -x {0.0 5.0 23 ------- null}
h -t 0.88024 -s 1 -d 5 -p tcp -e 1040 -c 0 -i 31 -a 0 -x {0.0 5.0 -1 ------- null}
r -t 0.88192 -s 1 -d 5 -p tcp -e 1040 -c 0 -i 29 -a 0 -x {0.0 5.0 21 ------- null}
r -t 0.88392 -s 5 -d 1 -p ack -e 40 -c 0 -i 37 -a 0 -x {5.0 0.0 20 ------- null}
+ -t 0.88392 -s 1 -d 0 -p ack -e 40 -c 0 -i 37 -a 0 -x {5.0 0.0 20 ------- null}
- -t 0.88392 -s 1 -d 0 -p ack -e 40 -c 0 -i 37 -a 0 -x {5.0 0.0 20 ------- null}
h -t 0.88392 -s 1 -d 0 -p ack -e 40 -c 0 -i 37 -a 0 -x {5.0 0.0 -1 ------- null}
- -t 0.88688 -s 0 -d 1 -p tcp -e 1040 -c 0 -i 36 -a 0 -x {0.0 5.0 26 ------- null}
h -t 0.88688 -s 0 -d 1 -p tcp -e 1040 -c 0 -i 36 -a 0 -x {0.0 5.0 -1 ------- null}
r -t 0.88856 -s 0 -d 1 -p tcp -e 1040 -c 0 -i 34 -a 0 -x {0.0 5.0 24 ------- null}
+ -t 0.88856 -s 1 -d 5 -p tcp -e 1040 -c 0 -i 34 -a 0 -x {0.0 5.0 24 ------- null}
- -t 0.88856 -s 1 -d 5 -p tcp -e 1040 -c 0 -i 34 -a 0 -x {0.0 5.0 24 ------- null}
h -t 0.88856 -s 1 -d 5 -p tcp -e 1040 -c 0 -i 34 -a 0 -x {0.0 5.0 -1 ------- null}
r -t 0.89024 -s 1 -d 5 -p tcp -e 1040 -c 0 -i 30 -a 0 -x {0.0 5.0 22 ------- null}
+ -t 0.89024 -s 5 -d 1 -p ack -e 40 -c 0 -i 41 -a 0 -x {5.0 0.0 22 ------- null}
- -t 0.89024 -s 5 -d 1 -p ack -e 40 -c 0 -i 41 -a 0 -x {5.0 0.0 22 ------- null}
h -t 0.89024 -s 5 -d 1 -p ack -e 40 -c 0 -i 41 -a 0 -x {5.0 0.0 -1 ------- null}
r -t 0.89424 -s 1 -d 0 -p ack -e 40 -c 0 -i 37 -a 0 -x {5.0 0.0 20 ------- null}
+ -t 0.89424 -s 0 -d 1 -p tcp -e 1040 -c 0 -i 42 -a 0 -x {0.0 5.0 30 ------- null}
+ -t 0.89424 -s 0 -d 1 -p tcp -e 1040 -c 0 -i 43 -a 0 -x {0.0 5.0 31 ------- null}
+ -t 0.89424 -s 0 -d 1 -p tcp -e 1040 -c 0 -i 44 -a 0 -x {0.0 5.0 32 ------- null}
- -t 0.8952 -s 0 -d 1 -p tcp -e 1040 -c 0 -i 38 -a 0 -x {0.0 5.0 27 ------- null}
h -t 0.8952 -s 0 -d 1 -p tcp -e 1040 -c 0 -i 38 -a 0 -x {0.0 5.0 -1 ------- null}
r -t 0.89688 -s 0 -d 1 -p tcp -e 1040 -c 0 -i 35 -a 0 -x {0.0 5.0 25 ------- null}
+ -t 0.89688 -s 1 -d 5 -p tcp -e 1040 -c 0 -i 35 -a 0 -x {0.0 5.0 25 ------- null}
- -t 0.89688 -s 1 -d 5 -p tcp -e 1040 -c 0 -i 35 -a 0 -x {0.0 5.0 25 ------- null}
h -t 0.89688 -s 1 -d 5 -p tcp -e 1040 -c 0 -i 35 -a 0 -x {0.0 5.0 -1 ------- null}
r -t 0.89856 -s 1 -d 5 -p tcp -e 1040 -c 0 -i 31 -a 0 -x {0.0 5.0 23 ------- null}
r -t 0.90056 -s 5 -d 1 -p ack -e 40 -c 0 -i 41 -a 0 -x {5.0 0.0 22 ------- null}
+ -t 0.90056 -s 1 -d 0 -p ack -e 40 -c 0 -i 41 -a 0 -x {5.0 0.0 22 ------- null}
- -t 0.90056 -s 1 -d 0 -p ack -e 40 -c 0 -i 41 -a 0 -x {5.0 0.0 22 ------- null}
h -t 0.90056 -s 1 -d 0 -p ack -e 40 -c 0 -i 41 -a 0 -x {5.0 0.0 -1 ------- null}
- -t 0.90352 -s 0 -d 1 -p tcp -e 1040 -c 0 -i 39 -a 0 -x {0.0 5.0 28 ------- null}
h -t 0.90352 -s 0 -d 1 -p tcp -e 1040 -c 0 -i 39 -a 0 -x {0.0 5.0 -1 ------- null}
r -t 0.9052 -s 0 -d 1 -p tcp -e 1040 -c 0 -i 36 -a 0 -x {0.0 5.0 26 ------- null}
+ -t 0.9052 -s 1 -d 5 -p tcp -e 1040 -c 0 -i 36 -a 0 -x {0.0 5.0 26 ------- null}
- -t 0.9052 -s 1 -d 5 -p tcp -e 1040 -c 0 -i 36 -a 0 -x {0.0 5.0 26 ------- null}
h -t 0.9052 -s 1 -d 5 -p tcp -e 1040 -c 0 -i 36 -a 0 -x {0.0 5.0 -1 ------- null}
r -t 0.90688 -s 1 -d 5 -p tcp -e 1040 -c 0 -i 34 -a 0 -x {0.0 5.0 24 ------- null}
+ -t 0.90688 -s 5 -d 1 -p ack -e 40 -c 0 -i 45 -a 0 -x {5.0 0.0 24 ------- null}
- -t 0.90688 -s 5 -d 1 -p ack -e 40 -c 0 -i 45 -a 0 -x {5.0 0.0 24 ------- null}
h -t 0.90688 -s 5 -d 1 -p ack -e 40 -c 0 -i 45 -a 0 -x {5.0 0.0 -1 ------- null}
r -t 0.91088 -s 1 -d 0 -p ack -e 40 -c 0 -i 41 -a 0 -x {5.0 0.0 22 ------- null}
+ -t 0.91088 -s 0 -d 1 -p tcp -e 1040 -c 0 -i 46 -a 0 -x {0.0 5.0 33 ------- null}
+ -t 0.91088 -s 0 -d 1 -p tcp -e 1040 -c 0 -i 47 -a 0 -x {0.0 5.0 34 ------- null}
+ -t 0.91088 -s 0 -d 1 -p tcp -e 1040 -c 0 -i 48 -a 0 -x {0.0 5.0 35 ------- null}
- -t 0.91184 -s 0 -d 1 -p tcp -e 1040 -c 0 -i 40 -a 0 -x {0.0 5.0 29 ------- null}
h -t 0.91184 -s 0 -d 1 -p tcp -e 1040 -c 0 -i 40 -a 0 -x {0.0 5.0 -1 ------- null}
r -t 0.91352 -s 0 -d 1 -p tcp -e 1040 -c 0 -i 38 -a 0 -x {0.0 5.0 27 ------- null}
+ -t 0.91352 -s 1 -d 5 -p tcp -e 1040 -c 0 -i 38 -a 0 -x {0.0 5.0 27 ------- null}
- -t 0.91352 -s 1 -d 5 -p tcp -e 1040 -c 0 -i 38 -a 0 -x {0.0 5.0 27 ------- null}
h -t 0.91352 -s 1 -d 5 -p tcp -e 1040 -c 0 -i 38 -a 0 -x {0.0 5.0 -1 ------- null}
r -t 0.9152 -s 1 -d 5 -p tcp -e 1040 -c 0 -i 35 -a 0 -x {0.0 5.0 25 ------- null}
r -t 0.9172 -s 5 -d 1 -p ack -e 40 -c 0 -i 45 -a 0 -x {5.0 0.0 24 ------- null}
+ -t 0.9172 -s 1 -d 0 -p ack -e 40 -c 0 -i 45 -a 0 -x {5.0 0.0 24 ------- null}
- -t 0.9172 -s 1 -d 0 -p ack -e 40 -c 0 -i 45 -a 0 -x {5.0 0.0 24 ------- null}
h -t 0.9172 -s 1 -d 0 -p ack -e 40 -c 0 -i 45 -a 0 -x {5.0 0.0 -1 ------- null}
- -t 0.92016 -s 0 -d 1 -p tcp -e 1040 -c 0 -i 42 -a 0 -x {0.0 5.0 30 ------- null}
h -t 0.92016 -s 0 -d 1 -p tcp -e 1040 -c 0 -i 42 -a 0 -x {0.0 5.0 -1 ------- null}
r -t 0.92184 -s 0 -d 1 -p tcp -e 1040 -c 0 -i 39 -a 0 -x {0.0 5.0 28 ------- null}
+ -t 0.92184 -s 1 -d 5 -p tcp -e 1040 -c 0 -i 39 -a 0 -x {0.0 5.0 28 ------- null}
- -t 0.92184 -s 1 -d 5 -p tcp -e 1040 -c 0 -i 39 -a 0 -x {0.0 5.0 28 ------- null}
h -t 0.92184 -s 1 -d 5 -p tcp -e 1040 -c 0 -i 39 -a 0 -x {0.0 5.0 -1 ------- null}
r -t 0.92352 -s 1 -d 5 -p tcp -e 1040 -c 0 -i 36 -a 0 -x {0.0 5.0 26 ------- null}
+ -t 0.92352 -s 5 -d 1 -p ack -e 40 -c 0 -i 49 -a 0 -x {5.0 0.0 26 ------- null}
- -t 0.92352 -s 5 -d 1 -p ack -e 40 -c 0 -i 49 -a 0 -x {5.0 0.0 26 ------- null}
h -t 0.92352 -s 5 -d 1 -p ack -e 40 -c 0 -i 49 -a 0 -x {5.0 0.0 -1 ------- null}
r -t 0.92752 -s 1 -d 0 -p ack -e 40 -c 0 -i 45 -a 0 -x {5.0 0.0 24 ------- null}
+ -t 0.92752 -s 0 -d 1 -p tcp -e 1040 -c 0 -i 50 -a 0 -x {0.0 5.0 36 ------- null}
+ -t 0.92752 -s 0 -d 1 -p tcp -e 1040 -c 0 -i 51 -a 0 -x {0.0 5.0 37 ------- null}
+ -t 0.92752 -s 0 -d 1 -p tcp -e 1040 -c 0 -i 52 -a 0 -x {0.0 5.0 38 ------- null}
- -t 0.92848 -s 0 -d 1 -p tcp -e 1040 -c 0 -i 43 -a 0 -x {0.0 5.0 31 ------- null}
h -t 0.92848 -s 0 -d 1 -p tcp -e 1040 -c 0 -i 43 -a 0 -x {0.0 5.0 -1 ------- null}
r -t 0.93016 -s 0 -d 1 -p tcp -e 1040 -c 0 -i 40 -a 0 -x {0.0 5.0 29 ------- null}
+ -t 0.93016 -s 1 -d 5 -p tcp -e 1040 -c 0 -i 40 -a 0 -x {0.0 5.0 29 ------- null}
- -t 0.93016 -s 1 -d 5 -p tcp -e 1040 -c 0 -i 40 -a 0 -x {0.0 5.0 29 ------- null}
h -t 0.93016 -s 1 -d 5 -p tcp -e 1040 -c 0 -i 40 -a 0 -x {0.0 5.0 -1 ------- null}
r -t 0.93184 -s 1 -d 5 -p tcp -e 1040 -c 0 -i 38 -a 0 -x {0.0 5.0 27 ------- null}