+ 0.5 0 1 tcp 40 ------- 0 0.0 5.0 0 0
- 0.5 0 1 tcp 40 ------- 0 0.0 5.0 0 0
r 0.51032 0 1 tcp 40 ------- 0 0.0 5.0 0 0
+ 0.51032 1 5 tcp 40 ------- 0 0.0 5.0 0 0
- 0.51032 1 5 tcp 40 ------- 0 0.0 5.0 0 0
r 0.52064 1 5 tcp 40 ------- 0 0.0 5.0 0 0
+ 0.52064 5 1 ack 40 ------- 0 5.0 0.0 0 1
- 0.52064 5 1 ack 40 ------- 0 5.0 0.0 0 1
r 0.53096 5 1 ack 40 ------- 0 5.0 0.0 0 1
+ 0.53096 1 0 ack 40 ------- 0 5.0 0.0 0 1
- 0.53096 1 0 ack 40 ------- 0 5.0 0.0 0 1
r 0.54128 1 0 ack 40 ------- 0 5.0 0.0 0 1
+ 0.54128 0 1 tcp 1040 ------- 0 0.0 5.0 1 2
- 0.54128 0 1 tcp 1040 ------- 0 0.0 5.0 1 2
+ 0.54128 0 1 tcp 1040 ------- 0 0.0 5.0 2 3
- 0.5496 0 1 tcp 1040 ------- 0 0.0 5.0 2 3
r 0.5596 0 1 tcp 1040 ------- 0 0.0 5.0 1 2
+ 0.5596 1 5 tcp 1040 ------- 0 0.0 5.0 1 2
- 0.5596 1 5 tcp 1040 ------- 0 0.0 5.0 1 2
r 0.56792 0 1 tcp 1040 ------- 0 0.0 5.0 2 3
+ 0.56792 1 5 tcp 1040 ------- 0 0.0 5.0 2 3
- 0.56792 1 5 tcp 1040 ------- 0 0.0 5.0 2 3
r 0.57792 1 5 tcp 1040 ------- 0 0.0 5.0 1 2
r 0.58624 1 5 tcp 1040 ------- 0 0.0 5.0 2 3
+ 0.58624 5 1 ack 40 ------- 0 5.0 0.0 2 4
- 0.58624 5 1 ack 40 ------- 0 5.0 0.0 2 4
r 0.59656 5 1 ack 40 ------- 0 5.0 0.0 2 4
+ 0.59656 1 0 ack 40 ------- 0 5.0 0.0 2 4
- 0.59656 1 0 ack 40 ------- 0 5.0 0.0 2 4
r 0.60688 1 0 ack 40 ------- 0 5.0 0.0 2 4
+ 0.60688 0 1 tcp 1040 ------- 0 0.0 5.0 3 5
- 0.60688 0 1 tcp 1040 ------- 0 0.0 5.0 3 5
+ 0.60688 0 1 tcp 1040 ------- 0 0.0 5.0 4 6
+ 0.60688 0 1 tcp 1040 ------- 0 0.0 5.0 5 7
- 0.6152 0 1 tcp 1040 ------- 0 0.0 5.0 4 6
- 0.62352 0 1 tcp 1040 ------- 0 0.0 5.0 5 7
r 0.6252 0 1 tcp 1040 ------- 0 0.0 5.0 3 5
+ 0.6252 1 5 tcp 1040 ------- 0 0.0 5.0 3 5
- 0.6252 1 5 tcp 1040 ------- 0 0.0 5.0 3 5
r 0.63352 0 1 tcp 1040 ------- 0 0.0 5.0 4 6
+ 0.63352 1 5 tcp 1040 ------- 0 0.0 5.0 4 6
- 0.63352 1 5 tcp 1040 ------- 0 0.0 5.0 4 6
r 0.64184 0 1 tcp 1040 ------- 0 0.0 5.0 5 7
+ 0.64184 1 5 tcp 1040 ------- 0 0.0 5.0 5 7
- 0.64184 1 5 tcp 1040 ------- 0 0.0 5.0 5 7
r 0.64352 1 5 tcp 1040 ------- 0 0.0 5.0 3 5
r 0.65184 1 5 tcp 1040 ------- 0 0.0 5.0 4 6
+ 0.65184 5 1 ack 40 ------- 0 5.0 0.0 4 8
- 0.65184 5 1 ack 40 ------- 0 5.0 0.0 4 8
r 0.66016 1 5 tcp 1040 ------- 0 0.0 5.0 5 7
r 0.66216 5 1 ack 40 ------- 0 5.0 0.0 4 8
+ 0.66216 1 0 ack 40 ------- 0 5.0 0.0 4 8
- 0.66216 1 0 ack 40 ------- 0 5.0 0.0 4 8
r 0.67248 1 0 ack 40 ------- 0 5.0 0.0 4 8
+ 0.67248 0 1 tcp 1040 ------- 0 0.0 5.0 6 9
- 0.67248 0 1 tcp 1040 ------- 0 0.0 5.0 6 9
+ 0.67248 0 1 tcp 1040 ------- 0 0.0 5.0 7 10
+ 0.67248 0 1 tcp 1040 ------- 0 0.0 5.0 8 11
- 0.6808 0 1 tcp 1040 ------- 0 0.0 5.0 7 10
- 0.68912 0 1 tcp 1040 ------- 0 0.0 5.0 8 11
r 0.6908 0 1 tcp 1040 ------- 0 0.0 5.0 6 9
+ 0.6908 1 5 tcp 1040 ------- 0 0.0 5.0 6 9
- 0.6908 1 5 tcp 1040 ------- 0 0.0 5.0 6 9
r 0.69912 0 1 tcp 1040 ------- 0 0.0 5.0 7 10
+ 0.69912 1 5 tcp 1040 ------- 0 0.0 5.0 7 10
- 0.69912 1 5 tcp 1040 ------- 0 0.0 5.0 7 10
r 0.70744 0 1 tcp 1040 ------- 0 0.0 5.0 8 11
+ 0.70744 1 5 tcp 1040 ------- 0 0.0 5.0 8 11
- 0.70744 1 5 tcp 1040 ------- 0 0.0 5.0 8 11
r 0.70912 1 5 tcp 1040 ------- 0 0.0 5.0 6 9
+ 0.70912 5 1 ack 40 ------- 0 5.0 0.0 6 12
- 0.70912 5 1 ack 40 ------- 0 5.0 0.0 6 12
r 0.71744 1 5 tcp 1040 ------- 0 0.0 5.0 7 10
r 0.71944 5 1 ack 40 ------- 0 5.0 0.0 6 12
+ 0.71944 1 0 ack 40 ------- 0 5.0 0.0 6 12
- 0.71944 1 0 ack 40 ------- 0 5.0 0.0 6 12
r 0.72576 1 5 tcp 1040 ------- 0 0.0 5.0 8 11
+ 0.72576 5 1 ack 40 ------- 0 5.0 0.0 8 13
- 0.72576 5 1 ack 40 ------- 0 5.0 0.0 8 13
r 0.72976 1 0 ack 40 ------- 0 5.0 0.0 6 12
+ 0.72976 0 1 tcp 1040 ------- 0 0.0 5.0 9 14
- 0.72976 0 1 tcp 1040 ------- 0 0.0 5.0 9 14
+ 0.72976 0 1 tcp 1040 ------- 0 0.0 5.0 10 15
+ 0.72976 0 1 tcp 1040 ------- 0 0.0 5.0 11 16
r 0.73608 5 1 ack 40 ------- 0 5.0 0.0 8 13
+ 0.73608 1 0 ack 40 ------- 0 5.0 0.0 8 13
- 0.73608 1 0 ack 40 ------- 0 5.0 0.0 8 13
- 0.73808 0 1 tcp 1040 ------- 0 0.0 5.0 10 15
r 0.7464 1 0 ack 40 ------- 0 5.0 0.0 8 13
+ 0.7464 0 1 tcp 1040 ------- 0 0.0 5.0 12 17
+ 0.7464 0 1 tcp 1040 ------- 0 0.0 5.0 13 18
+ 0.7464 0 1 tcp 1040 ------- 0 0.0 5.0 14 19
- 0.7464 0 1 tcp 1040 ------- 0 0.0 5.0 11 16
r 0.74808 0 1 tcp 1040 ------- 0 0.0 5.0 9 14
+ 0.74808 1 5 tcp 1040 ------- 0 0.0 5.0 9 14
- 0.74808 1 5 tcp 1040 ------- 0 0.0 5.0 9 14
- 0.75472 0 1 tcp 1040 ------- 0 0.0 5.0 12 17
r 0.7564 0 1 tcp 1040 ------- 0 0.0 5.0 10 15
+ 0.7564 1 5 tcp 1040 ------- 0 0.0 5.0 10 15
- 0.7564 1 5 tcp 1040 ------- 0 0.0 5.0 10 15
- 0.76304 0 1 tcp 1040 ------- 0 0.0 5.0 13 18
r 0.76472 0 1 tcp 1040 ------- 0 0.0 5.0 11 16
+ 0.76472 1 5 tcp 1040 ------- 0 0.0 5.0 11 16
- 0.76472 1 5 tcp 1040 ------- 0 0.0 5.0 11 16
r 0.7664 1 5 tcp 1040 ------- 0 0.0 5.0 9 14
- 0.77136 0 1 tcp 1040 ------- 0 0.0 5.0 14 19
r 0.77304 0 1 tcp 1040 ------- 0 0.0 5.0 12 17
+ 0.77304 1 5 tcp 1040 ------- 0 0.0 5.0 12 17
- 0.77304 1 5 tcp 1040 ------- 0 0.0 5.0 12 17
r 0.77472 1 5 tcp 1040 ------- 0 0.0 5.0 10 15
+ 0.77472 5 1 ack 40 ------- 0 5.0 0.0 10 20
- 0.77472 5 1 ack 40 ------- 0 5.0 0.0 10 20
r 0.78136 0 1 tcp 1040 ------- 0 0.0 5.0 13 18
+ 0.78136 1 5 tcp 1040 ------- 0 0.0 5.0 13 18
- 0.78136 1 5 tcp 1040 ------- 0 0.0 5.0 13 18
r 0.78304 1 5 tcp 1040 ------- 0 0.0 5.0 11 16
r 0.78504 5 1 ack 40 ------- 0 5.0 0.0 10 20
+ 0.78504 1 0 ack 40 ------- 0 5.0 0.0 10 20
- 0.78504 1 0 ack 40 ------- 0 5.0 0.0 10 20
r 0.78968 0 1 tcp 1040 ------- 0 0.0 5.0 14 19
+ 0.78968 1 5 tcp 1040 ------- 0 0.0 5.0 14 19
- 0.78968 1 5 tcp 1040 ------- 0 0.0 5.0 14 19
r 0.79136 1 5 tcp 1040 ------- 0 0.0 5.0 12 17
+ 0.79136 5 1 ack 40 ------- 0 5.0 0.0 12 21
- 0.79136 5 1 ack 40 ------- 0 5.0 0.0 12 21
r 0.79536 1 0 ack 40 ------- 0 5.0 0.0 10 20
+ 0.79536 0 1 tcp 1040 ------- 0 0.0 5.0 15 22
- 0.79536 0 1 tcp 1040 ------- 0 0.0 5.0 15 22
+ 0.79536 0 1 tcp 1040 ------- 0 0.0 5.0 16 23
+ 0.79536 0 1 tcp 1040 ------- 0 0.0 5.0 17 24
r 0.79968 1 5 tcp 1040 ------- 0 0.0 5.0 13 18
r 0.80168 5 1 ack 40 ------- 0 5.0 0.0 12 21
+ 0.80168 1 0 ack 40 ------- 0 5.0 0.0 12 21
- 0.80168 1 0 ack 40 ------- 0 5.0 0.0 12 21
- 0.80368 0 1 tcp 1040 ------- 0 0.0 5.0 16 23
r 0.808 1 5 tcp 1040 ------- 0 0.0 5.0 14 19
+ 0.808 5 1 ack 40 ------- 0 5.0 0.0 14 25
- 0.808 5 1 ack 40 ------- 0 5.0 0.0 14 25
r 0.812 1 0 ack 40 ------- 0 5.0 0.0 12 21
+ 0.812 0 1 tcp 1040 ------- 0 0.0 5.0 18 26
+ 0.812 0 1 tcp 1040 ------- 0 0.0 5.0 19 27
+ 0.812 0 1 tcp 1040 ------- 0 0.0 5.0 20 28
- 0.812 0 1 tcp 1040 ------- 0 0.0 5.0 17 24
r 0.81368 0 1 tcp 1040 ------- 0 0.0 5.0 15 22
+ 0.81368 1 5 tcp 1040 ------- 0 0.0 5.0 15 22
- 0.81368 1 5 tcp 1040 ------- 0 0.0 5.0 15 22
r 0.81832 5 1 ack 40 ------- 0 5.0 0.0 14 25
+ 0.81832 1 0 ack 40 ------- 0 5.0 0.0 14 25
- 0.81832 1 0 ack 40 ------- 0 5.0 0.0 14 25
- 0.82032 0 1 tcp 1040 ------- 0 0.0 5.0 18 26
r 0.822 0 1 tcp 1040 ------- 0 0.0 5.0 16 23
+ 0.822 1 5 tcp 1040 ------- 0 0.0 5.0 16 23
- 0.822 1 5 tcp 1040 ------- 0 0.0 5.0 16 23
r 0.82864 1 0 ack 40 ------- 0 5.0 0.0 14 25
+ 0.82864 0 1 tcp 1040 ------- 0 0.0 5.0 21 29
+ 0.82864 0 1 tcp 1040 ------- 0 0.0 5.0 22 30
+ 0.82864 0 1 tcp 1040 ------- 0 0.0 5.0 23 31
- 0.82864 0 1 tcp 1040 ------- 0 0.0 5.0 19 27
r 0.83032 0 1 tcp 1040 ------- 0 0.0 5.0 17 24
+ 0.83032 1 5 tcp 1040 ------- 0 0.0 5.0 17 24
- 0.83032 1 5 tcp 1040 ------- 0 0.0 5.0 17 24
r 0.832 1 5 tcp 1040 ------- 0 0.0 5.0 15 22
- 0.83696 0 1 tcp 1040 ------- 0 0.0 5.0 20 28
r 0.83864 0 1 tcp 1040 ------- 0 0.0 5.0 18 26
+ 0.83864 1 5 tcp 1040 ------- 0 0.0 5.0 18 26
- 0.83864 1 5 tcp 1040 ------- 0 0.0 5.0 18 26
r 0.84032 1 5 tcp 1040 ------- 0 0.0 5.0 16 23
+ 0.84032 5 1 ack 40 ------- 0 5.0 0.0 16 32
- 0.84032 5 1 ack 40 ------- 0 5.0 0.0 16 32
- 0.84528 0 1 tcp 1040 ------- 0 0.0 5.0 21 29
r 0.84696 0 1 tcp 1040 ------- 0 0.0 5.0 19 27
+ 0.84696 1 5 tcp 1040 ------- 0 0.0 5.0 19 27
- 0.84696 1 5 tcp 1040 ------- 0 0.0 5.0 19 27
r 0.84864 1 5 tcp 1040 ------- 0 0.0 5.0 17 24
r 0.85064 5 1 ack 40 ------- 0 5.0 0.0 16 32
+ 0.85064 1 0 ack 40 ------- 0 5.0 0.0 16 32
- 0.85064 1 0 ack 40 ------- 0 5.0 0.0 16 32
- 0.8536 0 1 tcp 1040 ------- 0 0.0 5.0 22 30
r 0.85528 0 1 tcp 1040 ------- 0 0.0 5.0 20 28
+ 0.85528 1 5 tcp 1040 ------- 0 0.0 5.0 20 28
- 0.85528 1 5 tcp 1040 ------- 0 0.0 5.0 20 28
r 0.85696 1 5 tcp 1040 ------- 0 0.0 5.0 18 26
+ 0.85696 5 1 ack 40 ------- 0 5.0 0.0 18 33
- 0.85696 5 1 ack 40 ------- 0 5.0 0.0 18 33
r 0.86096 1 0 ack 40 ------- 0 5.0 0.0 16 32
+ 0.86096 0 1 tcp 1040 ------- 0 0.0 5.0 24 34
+ 0.86096 0 1 tcp 1040 ------- 0 0.0 5.0 25 35
+ 0.86096 0 1 tcp 1040 ------- 0 0.0 5.0 26 36
- 0.86192 0 1 tcp 1040 ------- 0 0.0 5.0 23 31
r 0.8636 0 1 tcp 1040 ------- 0 0.0 5.0 21 29
+ 0.8636 1 5 tcp 1040 ------- 0 0.0 5.0 21 29
- 0.8636 1 5 tcp 1040 ------- 0 0.0 5.0 21 29
r 0.86528 1 5 tcp 1040 ------- 0 0.0 5.0 19 27
r 0.86728 5 1 ack 40 ------- 0 5.0 0.0 18 33
+ 0.86728 1 0 ack 40 ------- 0 5.0 0.0 18 33
- 0.86728 1 0 ack 40 ------- 0 5.0 0.0 18 33
- 0.87024 0 1 tcp 1040 ------- 0 0.0 5.0 24 34
r 0.87192 0 1 tcp 1040 ------- 0 0.0 5.0 22 30
+ 0.87192 1 5 tcp 1040 ------- 0 0.0 5.0 22 30
- 0.87192 1 5 tcp 1040 ------- 0 0.0 5.0 22 30
r 0.8736 1 5 tcp 1040 ------- 0 0.0 5.0 20 28
+ 0.8736 5 1 ack 40 ------- 0 5.0 0.0 20 37
- 0.8736 5 1 ack 40 ------- 0 5.0 0.0 20 37
r 0.8776 1 0 ack 40 ------- 0 5.0 0.0 18 33
+ 0.8776 0 1 tcp 1040 ------- 0 0.0 5.0 27 38
+ 0.8776 0 1 tcp 1040 ------- 0 0.0 5.0 28 39
+ 0.8776 0 1 tcp 1040 ------- 0 0.0 5.0 29 40
- 0.87856 0 1 tcp 1040 ------- 0 0.0 5.0 25 35
r 0.88024 0 1 tcp 1040 ------- 0 0.0 5.0 23 31
+ 0.88024 1 5 tcp 1040 ------- 0 0.0 5.0 23 31
- 0.88024 1 5 tcp 1040 ------- 0 0.0 5.0 23 31
r 0.88192 1 5 tcp 1040 ------- 0 0.0 5.0 21 29
r 0.88392 5 1 ack 40 ------- 0 5.0 0.0 20 37
+ 0.88392 1 0 ack 40 ------- 0 5.0 0.0 20 37
- 0.88392 1 0 ack 40 ------- 0 5.0 0.0 20 37
- 0.88688 0 1 tcp 1040 ------- 0 0.0 5.0 26 36
r 0.88856 0 1 tcp 1040 ------- 0 0.0 5.0 24 34
+ 0.88856 1 5 tcp 1040 ------- 0 0.0 5.0 24 34
- 0.88856 1 5 tcp 1040 ------- 0 0.0 5.0 24 34
r 0.89024 1 5 tcp 1040 ------- 0 0.0 5.0 22 30
+ 0.89024 5 1 ack 40 ------- 0 5.0 0.0 22 41
- 0.89024 5 1 ack 40 ------- 0 5.0 0.0 22 41
r 0.89424 1 0 ack 40 ------- 0 5.0 0.0 20 37
+ 0.89424 0 1 tcp 1040 ------- 0 0.0 5.0 30 42
+ 0.89424 0 1 tcp 1040 ------- 0 0.0 5.0 31 43
+ 0.89424 0 1 tcp 1040 ------- 0 0.0 5.0 32 44
- 0.8952 0 1 tcp 1040 ------- 0 0.0 5.0 27 38
r 0.89688 0 1 tcp 1040 ------- 0 0.0 5.0 25 35
+ 0.89688 1 5 tcp 1040 ------- 0 0.0 5.0 25 35
- 0.89688 1 5 tcp 1040 ------- 0 0.0 5.0 25 35
r 0.89856 1 5 tcp 1040 ------- 0 0.0 5.0 23 31
r 0.90056 5 1 ack 40 ------- 0 5.0 0.0 22 41
+ 0.90056 1 0 ack 40 ------- 0 5.0 0.0 22 41
- 0.90056 1 0 ack 40 ------- 0 5.0 0.0 22 41
- 0.90352 0 1 tcp 1040 ------- 0 0.0 5.0 28 39
r 0.9052 0 1 tcp 1040 ------- 0 0.0 5.0 26 36
+ 0.9052 1 5 tcp 1040 ------- 0 0.0 5.0 26 36
- 0.9052 1 5 tcp 1040 ------- 0 0.0 5.0 26 36
r 0.90688 1 5 tcp 1040 ------- 0 0.0 5.0 24 34
+ 0.90688 5 1 ack 40 ------- 0 5.0 0.0 24 45
- 0.90688 5 1 ack 40 ------- 0 5.0 0.0 24 45
r 0.91088 1 0 ack 40 ------- 0 5.0 0.0 22 41
+ 0.91088 0 1 tcp 1040 ------- 0 0.0 5.0 33 46
+ 0.91088 0 1 tcp 1040 ------- 0 0.0 5.0 34 47
+ 0.91088 0 1 tcp 1040 ------- 0 0.0 5.0 35 48
- 0.91184 0 1 tcp 1040 ------- 0 0.0 5.0 29 40
r 0.91352 0 1 tcp 1040 ------- 0 0.0 5.0 27 38
+ 0.91352 1 5 tcp 1040 ------- 0 0.0 5.0 27 38
- 0.91352 1 5 tcp 1040 ------- 0 0.0 5.0 27 38
r 0.9152 1 5 tcp 1040 ------- 0 0.0 5.0 25 35
r 0.9172 5 1 ack 40 ------- 0 5.0 0.0 24 45
+ 0.9172 1 0 ack 40 ------- 0 5.0 0.0 24 45
- 0.9172 1 0 ack 40 ------- 0 5.0 0.0 24 45
- 0.92016 0 1 tcp 1040 ------- 0 0.0 5.0 30 42
r 0.92184 0 1 tcp 1040 ------- 0 0.0 5.0 28 39
+ 0.92184 1 5 tcp 1040 ------- 0 0.0 5.0 28 39
- 0.92184 1 5 tcp 1040 ------- 0 0.0 5.0 28 39
r 0.92352 1 5 tcp 1040 ------- 0 0.0 5.0 26 36
+ 0.92352 5 1 ack 40 ------- 0 5.0 0.0 26 49
- 0.92352 5 1 ack 40 ------- 0 5.0 0.0 26 49
r 0.92752 1 0 ack 40 ------- 0 5.0 0.0 24 45
+ 0.92752 0 1 tcp 1040 ------- 0 0.0 5.0 36 50
+ 0.92752 0 1 tcp 1040 ------- 0 0.0 5.0 37 51
+ 0.92752 0 1 tcp 1040 ------- 0 0.0 5.0 38 52
- 0.92848 0 1 tcp 1040 ------- 0 0.0 5.0 31 43
r 0.93016 0 1 tcp 1040 ------- 0 0.0 5.0 29 40
+ 0.93016 1 5 tcp 1040 ------- 0 0.0 5.0 29 40
- 0.93016 1 5 tcp 1040 ------- 0 0.0 5.0 29 40
r 0.93184 1 5 tcp 1040 ------- 0 0.0 5.0 27 38
r 0.93384 5 1 ack 40 ------- 0 5.0 0.0 26 49
+ 0.93384 1 0 ack 40 ------- 0 5.0 0.0 26 49
- 0.93384 1 0 ack 40 ------- 0 5.0 0.0 26 49
- 0.9368 0 1 tcp 1040 ------- 0 0.0 5.0 32 44
r 0.93848 0 1 tcp 1040 ------- 0 0.0 5.0 30 42
+ 0.93848 1 5 tcp 1040 ------- 0 0.0 5.0 30 42
- 0.93848 1 5 tcp 1040 ------- 0 0.0 5.0 30 42
r 0.94016 1 5 tcp 1040 ------- 0 0.0 5.0 28 39
+ 0.94016 5 1 ack 40 ------- 0 5.0 0.0 28 53
- 0.94016 5 1 ack 40 ------- 0 5.0 0.0 28 53
r 0.94416 1 0 ack 40 ------- 0 5.0 0.0 26 49
+ 0.94416 0 1 tcp 1040 ------- 0 0.0 5.0 39 54
+ 0.94416 0 1 tcp 1040 ------- 0 0.0 5.0 40 55
+ 0.94416 0 1 tcp 1040 ------- 0 0.0 5.0 41 56
- 0.94512 0 1 tcp 1040 ------- 0 0.0 5.0 33 46
r 0.9468 0 1 tcp 1040 ------- 0 0.0 5.0 31 43
+ 0.9468 1 5 tcp 1040 ------- 0 0.0 5.0 31 43
- 0.9468 1 5 tcp 1040 ------- 0 0.0 5.0 31 43
r 0.94848 1 5 tcp 1040 ------- 0 0.0 5.0 29 40
r 0.95048 5 1 ack 40 ------- 0 5.0 0.0 28 53
+ 0.95048 1 0 ack 40 ------- 0 5.0 0.0 28 53
- 0.95048 1 0 ack 40 ------- 0 5.0 0.0 28 53
- 0.95344 0 1 tcp 1040 ------- 0 0.0 5.0 34 47
r 0.95512 0 1 tcp 1040 ------- 0 0.0 5.0 32 44
+ 0.95512 1 5 tcp 1040 ------- 0 0.0 5.0 32 44
- 0.95512 1 5 tcp 1040 ------- 0 0.0 5.0 32 44
r 0.9568 1 5 tcp 1040 ------- 0 0.0 5.0 30 42
+ 0.9568 5 1 ack 40 ------- 0 5.0 0.0 30 57
- 0.9568 5 1 ack 40 ------- 0 5.0 0.0 30 57
r 0.9608 1 0 ack 40 ------- 0 5.0 0.0 28 53
+ 0.9608 0 1 tcp 1040 ------- 0 0.0 5.0 42 58
+ 0.9608 0 1 tcp 1040 ------- 0 0.0 5.0 43 59
+ 0.9608 0 1 tcp 1040 ------- 0 0.0 5.0 44 60
- 0.96176 0 1 tcp 1040 ------- 0 0.0 5.0 35 48
r 0.96344 0 1 tcp 1040 ------- 0 0.0 5.0 33 46
+ 0.96344 1 5 tcp 1040 ------- 0 0.0 5.0 33 46
- 0.96344 1 5 tcp 1040 ------- 0 0.0 5.0 33 46
r 0.96512 1 5 tcp 1040 ------- 0 0.0 5.0 31 43
r 0.96712 5 1 ack 40 ------- 0 5.0 0.0 30 57
+ 0.96712 1 0 ack 40 ------- 0 5.0 0.0 30 57
- 0.96712 1 0 ack 40 ------- 0 5.0 0.0 30 57
- 0.97008 0 1 tcp 1040 ------- 0 0.0 5.0 36 50
r 0.97176 0 1 tcp 1040 ------- 0 0.0 5.0 34 47
+ 0.97176 1 5 tcp 1040 ------- 0 0.0 5.0 34 47
- 0.97176 1 5 tcp 1040 ------- 0 0.0 5.0 34 47
r 0.97344 1 5 tcp 1040 ------- 0 0.0 5.0 32 44
+ 0.97344 5 1 ack 40 ------- 0 5.0 0.0 32 61
- 0.97344 5 1 ack 40 ------- 0 5.0 0.0 32 61
r 0.97744 1 0 ack 40 ------- 0 5.0 0.0 30 57
+ 0.97744 0 1 tcp 1040 ------- 0 0.0 5.0 45 62
+ 0.97744 0 1 tcp 1040 ------- 0 0.0 5.0 46 63
+ 0.97744 0 1 tcp 1040 ------- 0 0.0 5.0 47 64
- 0.9784 0 1 tcp 1040 ------- 0 0.0 5.0 37 51
r 0.98008 0 1 tcp 1040 ------- 0 0.0 5.0 35 48
+ 0.98008 1 5 tcp 1040 ------- 0 0.0 5.0 35 48
- 0.98008 1 5 tcp 1040 ------- 0 0.0 5.0 35 48
r 0.98176 1 5 tcp 1040 ------- 0 0.0 5.0 33 46
r 0.98376 5 1 ack 40 ------- 0 5.0 0.0 32 61
+ 0.98376 1 0 ack 40 ------- 0 5.0 0.0 32 61
- 0.98376 1 0 ack 40 ------- 0 5.0 0.0 32 61
- 0.98672 0 1 tcp 1040 ------- 0 0.0 5.0 38 52
r 0.9884 0 1 tcp 1040 ------- 0 0.0 5.0 36 50
+ 0.9884 1 5 tcp 1040 ------- 0 0.0 5.0 36 50
- 0.9884 1 5 tcp 1040 ------- 0 0.0 5.0 36 50
r 0.99008 1 5 tcp 1040 ------- 0 0.0 5.0 34 47
+ 0.99008 5 1 ack 40 ------- 0 5.0 0.0 34 65
- 0.99008 5 1 ack 40 ------- 0 5.0 0.0 34 65
r 0.99408 1 0 ack 40 ------- 0 5.0 0.0 32 61
+ 0.99408 0 1 tcp 1040 ------- 0 0.0 5.0 48 66
+ 0.99408 0 1 tcp 1040 ------- 0 0.0 5.0 49 67
+ 0.99408 0 1 tcp 1040 ------- 0 0.0 5.0 50 68
- 0.99504 0 1 tcp 1040 ------- 0 0.0 5.0 39 54
r 0.99672 0 1 tcp 1040 ------- 0 0.0 5.0 37 51
+ 0.99672 1 5 tcp 1040 ------- 0 0.0 5.0 37 51
- 0.99672 1 5 tcp 1040 ------- 0 0.0 5.0 37 51
r 0.9984 1 5 tcp 1040 ------- 0 0.0 5.0 35 48
v 1 link-down 1 0
v 1 link-down 1 0
d 1 0 1 tcp 1040 ------- 0 0.0 5.0 40 55
d 1 0 1 tcp 1040 ------- 0 0.0 5.0 41 56
d 1 0 1 tcp 1040 ------- 0 0.0 5.0 42 58
d 1 0 1 tcp 1040 ------- 0 0.0 5.0 43 59
d 1 0 1 tcp 1040 ------- 0 0.0 5.0 44 60
d 1 0 1 tcp 1040 ------- 0 0.0 5.0 45 62
d 1 0 1 tcp 1040 ------- 0 0.0 5.0 46 63
d 1 0 1 tcp 1040 ------- 0 0.0 5.0 47 64
d 1 0 1 tcp 1040 ------- 0 0.0 5.0 48 66
d 1 0 1 tcp 1040 ------- 0 0.0 5.0 49 67
d 1 0 1 tcp 1040 ------- 0 0.0 5.0 50 68
d 1 0 1 tcp 1040 ------- 0 0.0 5.0 38 52
d 1 0 1 tcp 1040 ------- 0 0.0 5.0 39 54
v 1 link-down 0 1
v 1 link-down 0 1
r 1.0004 5 1 ack 40 ------- 0 5.0 0.0 34 65
r 1.00672 1 5 tcp 1040 ------- 0 0.0 5.0 36 50
+ 1.00672 5 1 ack 40 ------- 0 5.0 0.0 36 69
- 1.00672 5 1 ack 40 ------- 0 5.0 0.0 36 69
r 1.01504 1 5 tcp 1040 ------- 0 0.0 5.0 37 51
r 1.01704 5 1 ack 40 ------- 0 5.0 0.0 36 69
+ 1.11504 5 1 ack 40 ------- 0 5.0 0.0 37 70
- 1.11504 5 1 ack 40 ------- 0 5.0 0.0 37 70
r 1.12536 5 1 ack 40 ------- 0 5.0 0.0 37 70
v 2 link-up 1 0
v 2 link-up 1 0
v 2 link-up 0 1
v 2 link-up 0 1
+ 2.39408 0 1 tcp 1040 ---A--- 0 0.0 5.0 33 73
- 2.39408 0 1 tcp 1040 ---A--- 0 0.0 5.0 33 73
r 2.4124 0 1 tcp 1040 ---A--- 0 0.0 5.0 33 73
+ 2.4124 1 5 tcp 1040 ---A--- 0 0.0 5.0 33 73
- 2.4124 1 5 tcp 1040 ---A--- 0 0.0 5.0 33 73
r 2.43072 1 5 tcp 1040 ---A--- 0 0.0 5.0 33 73
+ 2.43072 5 1 ack 40 ------- 0 5.0 0.0 37 74
- 2.43072 5 1 ack 40 ------- 0 5.0 0.0 37 74
r 2.44104 5 1 ack 40 ------- 0 5.0 0.0 37 74
+ 2.44104 1 0 ack 40 ------- 0 5.0 0.0 37 74
- 2.44104 1 0 ack 40 ------- 0 5.0 0.0 37 74
r 2.45136 1 0 ack 40 ------- 0 5.0 0.0 37 74
+ 2.45136 0 1 tcp 1040 ------- 0 0.0 5.0 38 75
- 2.45136 0 1 tcp 1040 ------- 0 0.0 5.0 38 75
+ 2.45136 0 1 tcp 1040 ------- 0 0.0 5.0 39 76
- 2.45968 0 1 tcp 1040 ------- 0 0.0 5.0 39 76
r 2.46968 0 1 tcp 1040 ------- 0 0.0 5.0 38 75
+ 2.46968 1 5 tcp 1040 ------- 0 0.0 5.0 38 75
- 2.46968 1 5 tcp 1040 ------- 0 0.0 5.0 38 75
r 2.478 0 1 tcp 1040 ------- 0 0.0 5.0 39 76
+ 2.478 1 5 tcp 1040 ------- 0 0.0 5.0 39 76
- 2.478 1 5 tcp 1040 ------- 0 0.0 5.0 39 76
r 2.488 1 5 tcp 1040 ------- 0 0.0 5.0 38 75
r 2.49632 1 5 tcp 1040 ------- 0 0.0 5.0 39 76
+ 2.49632 5 1 ack 40 ------- 0 5.0 0.0 39 77
- 2.49632 5 1 ack 40 ------- 0 5.0 0.0 39 77
r 2.50664 5 1 ack 40 ------- 0 5.0 0.0 39 77
+ 2.50664 1 0 ack 40 ------- 0 5.0 0.0 39 77
- 2.50664 1 0 ack 40 ------- 0 5.0 0.0 39 77
r 2.51696 1 0 ack 40 ------- 0 5.0 0.0 39 77
+ 2.51696 0 1 tcp 1040 ------- 0 0.0 5.0 40 78
- 2.51696 0 1 tcp 1040 ------- 0 0.0 5.0 40 78
+ 2.51696 0 1 tcp 1040 ------- 0 0.0 5.0 41 79
- 2.52528 0 1 tcp 1040 ------- 0 0.0 5.0 41 79
r 2.53528 0 1 tcp 1040 ------- 0 0.0 5.0 40 78
+ 2.53528 1 5 tcp 1040 ------- 0 0.0 5.0 40 78
- 2.53528 1 5 tcp 1040 ------- 0 0.0 5.0 40 78
r 2.5436 0 1 tcp 1040 ------- 0 0.0 5.0 41 79
+ 2.5436 1 5 tcp 1040 ------- 0 0.0 5.0 41 79
- 2.5436 1 5 tcp 1040 ------- 0 0.0 5.0 41 79
r 2.5536 1 5 tcp 1040 ------- 0 0.0 5.0 40 78
r 2.56192 1 5 tcp 1040 ------- 0 0.0 5.0 41 79
+ 2.56192 5 1 ack 40 ------- 0 5.0 0.0 41 80
- 2.56192 5 1 ack 40 ------- 0 5.0 0.0 41 80
r 2.57224 5 1 ack 40 ------- 0 5.0 0.0 41 80
+ 2.57224 1 0 ack 40 ------- 0 5.0 0.0 41 80
- 2.57224 1 0 ack 40 ------- 0 5.0 0.0 41 80
r 2.58256 1 0 ack 40 ------- 0 5.0 0.0 41 80
+ 2.58256 0 1 tcp 1040 ------- 0 0.0 5.0 42 81
- 2.58256 0 1 tcp 1040 ------- 0 0.0 5.0 42 81
+ 2.58256 0 1 tcp 1040 ------- 0 0.0 5.0 43 82
- 2.59088 0 1 tcp 1040 ------- 0 0.0 5.0 43 82
r 2.60088 0 1 tcp 1040 ------- 0 0.0 5.0 42 81
+ 2.60088 1 5 tcp 1040 ------- 0 0.0 5.0 42 81
- 2.60088 1 5 tcp 1040 ------- 0 0.0 5.0 42 81
r 2.6092 0 1 tcp 1040 ------- 0 0.0 5.0 43 82
+ 2.6092 1 5 tcp 1040 ------- 0 0.0 5.0 43 82
- 2.6092 1 5 tcp 1040 ------- 0 0.0 5.0 43 82
r 2.6192 1 5 tcp 1040 ------- 0 0.0 5.0 42 81
r 2.62752 1 5 tcp 1040 ------- 0 0.0 5.0 43 82
+ 2.62752 5 1 ack 40 ------- 0 5.0 0.0 43 83
- 2.62752 5 1 ack 40 ------- 0 5.0 0.0 43 83
r 2.63784 5 1 ack 40 ------- 0 5.0 0.0 43 83
+ 2.63784 1 0 ack 40 ------- 0 5.0 0.0 43 83
- 2.63784 1 0 ack 40 ------- 0 5.0 0.0 43 83
r 2.64816 1 0 ack 40 ------- 0 5.0 0.0 43 83
+ 2.64816 0 1 tcp 1040 ------- 0 0.0 5.0 44 84
- 2.64816 0 1 tcp 1040 ------- 0 0.0 5.0 44 84
+ 2.64816 0 1 tcp 1040 ------- 0 0.0 5.0 45 85
+ 2.64816 0 1 tcp 1040 ------- 0 0.0 5.0 46 86
- 2.65648 0 1 tcp 1040 ------- 0 0.0 5.0 45 85
- 2.6648 0 1 tcp 1040 ------- 0 0.0 5.0 46 86
r 2.66648 0 1 tcp 1040 ------- 0 0.0 5.0 44 84
+ 2.66648 1 5 tcp 1040 ------- 0 0.0 5.0 44 84
- 2.66648 1 5 tcp 1040 ------- 0 0.0 5.0 44 84
r 2.6748 0 1 tcp 1040 ------- 0 0.0 5.0 45 85
+ 2.6748 1 5 tcp 1040 ------- 0 0.0 5.0 45 85
- 2.6748 1 5 tcp 1040 ------- 0 0.0 5.0 45 85
r 2.68312 0 1 tcp 1040 ------- 0 0.0 5.0 46 86
+ 2.68312 1 5 tcp 1040 ------- 0 0.0 5.0 46 86
- 2.68312 1 5 tcp 1040 ------- 0 0.0 5.0 46 86
r 2.6848 1 5 tcp 1040 ------- 0 0.0 5.0 44 84
r 2.69312 1 5 tcp 1040 ------- 0 0.0 5.0 45 85
+ 2.69312 5 1 ack 40 ------- 0 5.0 0.0 45 87
- 2.69312 5 1 ack 40 ------- 0 5.0 0.0 45 87
r 2.70144 1 5 tcp 1040 ------- 0 0.0 5.0 46 86
r 2.70344 5 1 ack 40 ------- 0 5.0 0.0 45 87
+ 2.70344 1 0 ack 40 ------- 0 5.0 0.0 45 87
- 2.70344 1 0 ack 40 ------- 0 5.0 0.0 45 87
r 2.71376 1 0 ack 40 ------- 0 5.0 0.0 45 87
+ 2.71376 0 1 tcp 1040 ------- 0 0.0 5.0 47 88
- 2.71376 0 1 tcp 1040 ------- 0 0.0 5.0 47 88
+ 2.71376 0 1 tcp 1040 ------- 0 0.0 5.0 48 89
- 2.72208 0 1 tcp 1040 ------- 0 0.0 5.0 48 89
r 2.73208 0 1 tcp 1040 ------- 0 0.0 5.0 47 88
+ 2.73208 1 5 tcp 1040 ------- 0 0.0 5.0 47 88
- 2.73208 1 5 tcp 1040 ------- 0 0.0 5.0 47 88
r 2.7404 0 1 tcp 1040 ------- 0 0.0 5.0 48 89
+ 2.7404 1 5 tcp 1040 ------- 0 0.0 5.0 48 89
- 2.7404 1 5 tcp 1040 ------- 0 0.0 5.0 48 89
r 2.7504 1 5 tcp 1040 ------- 0 0.0 5.0 47 88
+ 2.7504 5 1 ack 40 ------- 0 5.0 0.0 47 90
- 2.7504 5 1 ack 40 ------- 0 5.0 0.0 47 90
r 2.75872 1 5 tcp 1040 ------- 0 0.0 5.0 48 89
r 2.76072 5 1 ack 40 ------- 0 5.0 0.0 47 90
+ 2.76072 1 0 ack 40 ------- 0 5.0 0.0 47 90
- 2.76072 1 0 ack 40 ------- 0 5.0 0.0 47 90
r 2.77104 1 0 ack 40 ------- 0 5.0 0.0 47 90
+ 2.77104 0 1 tcp 1040 ------- 0 0.0 5.0 49 91
- 2.77104 0 1 tcp 1040 ------- 0 0.0 5.0 49 91
+ 2.77104 0 1 tcp 1040 ------- 0 0.0 5.0 50 92
- 2.77936 0 1 tcp 1040 ------- 0 0.0 5.0 50 92
r 2.78936 0 1 tcp 1040 ------- 0 0.0 5.0 49 91
+ 2.78936 1 5 tcp 1040 ------- 0 0.0 5.0 49 91
- 2.78936 1 5 tcp 1040 ------- 0 0.0 5.0 49 91
r 2.79768 0 1 tcp 1040 ------- 0 0.0 5.0 50 92
+ 2.79768 1 5 tcp 1040 ------- 0 0.0 5.0 50 92
- 2.79768 1 5 tcp 1040 ------- 0 0.0 5.0 50 92
r 2.80768 1 5 tcp 1040 ------- 0 0.0 5.0 49 91
+ 2.80768 5 1 ack 40 ------- 0 5.0 0.0 49 93
- 2.80768 5 1 ack 40 ------- 0 5.0 0.0 49 93
r 2.816 1 5 tcp 1040 ------- 0 0.0 5.0 50 92
r 2.818 5 1 ack 40 ------- 0 5.0 0.0 49 93
+ 2.818 1 0 ack 40 ------- 0 5.0 0.0 49 93
- 2.818 1 0 ack 40 ------- 0 5.0 0.0 49 93
r 2.82832 1 0 ack 40 ------- 0 5.0 0.0 49 93
+ 2.82832 0 1 tcp 1040 ------- 0 0.0 5.0 51 94
- 2.82832 0 1 tcp 1040 ------- 0 0.0 5.0 51 94
+ 2.82832 0 1 tcp 1040 ------- 0 0.0 5.0 52 95
+ 2.82832 0 1 tcp 1040 ------- 0 0.0 5.0 53 96
- 2.83664 0 1 tcp 1040 ------- 0 0.0 5.0 52 95
- 2.84496 0 1 tcp 1040 ------- 0 0.0 5.0 53 96
r 2.84664 0 1 tcp 1040 ------- 0 0.0 5.0 51 94
+ 2.84664 1 5 tcp 1040 ------- 0 0.0 5.0 51 94
- 2.84664 1 5 tcp 1040 ------- 0 0.0 5.0 51 94
r 2.85496 0 1 tcp 1040 ------- 0 0.0 5.0 52 95
+ 2.85496 1 5 tcp 1040 ------- 0 0.0 5.0 52 95
- 2.85496 1 5 tcp 1040 ------- 0 0.0 5.0 52 95
r 2.86328 0 1 tcp 1040 ------- 0 0.0 5.0 53 96
+ 2.86328 1 5 tcp 1040 ------- 0 0.0 5.0 53 96
- 2.86328 1 5 tcp 1040 ------- 0 0.0 5.0 53 96
r 2.86496 1 5 tcp 1040 ------- 0 0.0 5.0 51 94
+ 2.86496 5 1 ack 40 ------- 0 5.0 0.0 51 97
- 2.86496 5 1 ack 40 ------- 0 5.0 0.0 51 97
r 2.87328 1 5 tcp 1040 ------- 0 0.0 5.0 52 95
r 2.87528 5 1 ack 40 ------- 0 5.0 0.0 51 97
+ 2.87528 1 0 ack 40 ------- 0 5.0 0.0 51 97
- 2.87528 1 0 ack 40 ------- 0 5.0 0.0 51 97
r 2.8816 1 5 tcp 1040 ------- 0 0.0 5.0 53 96
+ 2.8816 5 1 ack 40 ------- 0 5.0 0.0 53 98
- 2.8816 5 1 ack 40 ------- 0 5.0 0.0 53 98
r 2.8856 1 0 ack 40 ------- 0 5.0 0.0 51 97
+ 2.8856 0 1 tcp 1040 ------- 0 0.0 5.0 54 99
- 2.8856 0 1 tcp 1040 ------- 0 0.0 5.0 54 99
+ 2.8856 0 1 tcp 1040 ------- 0 0.0 5.0 55 100
r 2.89192 5 1 ack 40 ------- 0 5.0 0.0 53 98
+ 2.89192 1 0 ack 40 ------- 0 5.0 0.0 53 98
- 2.89192 1 0 ack 40 ------- 0 5.0 0.0 53 98
- 2.89392 0 1 tcp 1040 ------- 0 0.0 5.0 55 100
r 2.90224 1 0 ack 40 ------- 0 5.0 0.0 53 98
+ 2.90224 0 1 tcp 1040 ------- 0 0.0 5.0 56 101
+ 2.90224 0 1 tcp 1040 ------- 0 0.0 5.0 57 102
- 2.90224 0 1 tcp 1040 ------- 0 0.0 5.0 56 101
r 2.90392 0 1 tcp 1040 ------- 0 0.0 5.0 54 99
+ 2.90392 1 5 tcp 1040 ------- 0 0.0 5.0 54 99
- 2.90392 1 5 tcp 1040 ------- 0 0.0 5.0 54 99
- 2.91056 0 1 tcp 1040 ------- 0 0.0 5.0 57 102
r 2.91224 0 1 tcp 1040 ------- 0 0.0 5.0 55 100
+ 2.91224 1 5 tcp 1040 ------- 0 0.0 5.0 55 100
- 2.91224 1 5 tcp 1040 ------- 0 0.0 5.0 55 100
r 2.92056 0 1 tcp 1040 ------- 0 0.0 5.0 56 101
+ 2.92056 1 5 tcp 1040 ------- 0 0.0 5.0 56 101
- 2.92056 1 5 tcp 1040 ------- 0 0.0 5.0 56 101
r 2.92224 1 5 tcp 1040 ------- 0 0.0 5.0 54 99
r 2.92888 0 1 tcp 1040 ------- 0 0.0 5.0 57 102
+ 2.92888 1 5 tcp 1040 ------- 0 0.0 5.0 57 102
- 2.92888 1 5 tcp 1040 ------- 0 0.0 5.0 57 102
r 2.93056 1 5 tcp 1040 ------- 0 0.0 5.0 55 100
+ 2.93056 5 1 ack 40 ------- 0 5.0 0.0 55 103
- 2.93056 5 1 ack 40 ------- 0 5.0 0.0 55 103
r 2.93888 1 5 tcp 1040 ------- 0 0.0 5.0 56 101
r 2.94088 5 1 ack 40 ------- 0 5.0 0.0 55 103
+ 2.94088 1 0 ack 40 ------- 0 5.0 0.0 55 103
- 2.94088 1 0 ack 40 ------- 0 5.0 0.0 55 103
r 2.9472 1 5 tcp 1040 ------- 0 0.0 5.0 57 102
+ 2.9472 5 1 ack 40 ------- 0 5.0 0.0 57 104
- 2.9472 5 1 ack 40 ------- 0 5.0 0.0 57 104
r 2.9512 1 0 ack 40 ------- 0 5.0 0.0 55 103
+ 2.9512 0 1 tcp 1040 ------- 0 0.0 5.0 58 105
- 2.9512 0 1 tcp 1040 ------- 0 0.0 5.0 58 105
+ 2.9512 0 1 tcp 1040 ------- 0 0.0 5.0 59 106
r 2.95752 5 1 ack 40 ------- 0 5.0 0.0 57 104
+ 2.95752 1 0 ack 40 ------- 0 5.0 0.0 57 104
- 2.95752 1 0 ack 40 ------- 0 5.0 0.0 57 104
- 2.95952 0 1 tcp 1040 ------- 0 0.0 5.0 59 106
r 2.96784 1 0 ack 40 ------- 0 5.0 0.0 57 104
+ 2.96784 0 1 tcp 1040 ------- 0 0.0 5.0 60 107
+ 2.96784 0 1 tcp 1040 ------- 0 0.0 5.0 61 108
- 2.96784 0 1 tcp 1040 ------- 0 0.0 5.0 60 107
r 2.96952 0 1 tcp 1040 ------- 0 0.0 5.0 58 105
+ 2.96952 1 5 tcp 1040 ------- 0 0.0 5.0 58 105
- 2.96952 1 5 tcp 1040 ------- 0 0.0 5.0 58 105
- 2.97616 0 1 tcp 1040 ------- 0 0.0 5.0 61 108
r 2.97784 0 1 tcp 1040 ------- 0 0.0 5.0 59 106
+ 2.97784 1 5 tcp 1040 ------- 0 0.0 5.0 59 106
- 2.97784 1 5 tcp 1040 ------- 0 0.0 5.0 59 106
r 2.98616 0 1 tcp 1040 ------- 0 0.0 5.0 60 107
+ 2.98616 1 5 tcp 1040 ------- 0 0.0 5.0 60 107
- 2.98616 1 5 tcp 1040 ------- 0 0.0 5.0 60 107
r 2.98784 1 5 tcp 1040 ------- 0 0.0 5.0 58 105
r 2.99448 0 1 tcp 1040 ------- 0 0.0 5.0 61 108
+ 2.99448 1 5 tcp 1040 ------- 0 0.0 5.0 61 108
- 2.99448 1 5 tcp 1040 ------- 0 0.0 5.0 61 108
r 2.99616 1 5 tcp 1040 ------- 0 0.0 5.0 59 106
+ 2.99616 5 1 ack 40 ------- 0 5.0 0.0 59 109
- 2.99616 5 1 ack 40 ------- 0 5.0 0.0 59 109
r 3.00448 1 5 tcp 1040 ------- 0 0.0 5.0 60 107
r 3.00648 5 1 ack 40 ------- 0 5.0 0.0 59 109
+ 3.00648 1 0 ack 40 ------- 0 5.0 0.0 59 109
- 3.00648 1 0 ack 40 ------- 0 5.0 0.0 59 109
r 3.0128 1 5 tcp 1040 ------- 0 0.0 5.0 61 108
+ 3.0128 5 1 ack 40 ------- 0 5.0 0.0 61 110
- 3.0128 5 1 ack 40 ------- 0 5.0 0.0 61 110
r 3.0168 1 0 ack 40 ------- 0 5.0 0.0 59 109
+ 3.0168 0 1 tcp 1040 ------- 0 0.0 5.0 62 111
- 3.0168 0 1 tcp 1040 ------- 0 0.0 5.0 62 111
+ 3.0168 0 1 tcp 1040 ------- 0 0.0 5.0 63 112
+ 3.0168 0 1 tcp 1040 ------- 0 0.0 5.0 64 113
r 3.02312 5 1 ack 40 ------- 0 5.0 0.0 61 110
+ 3.02312 1 0 ack 40 ------- 0 5.0 0.0 61 110
- 3.02312 1 0 ack 40 ------- 0 5.0 0.0 61 110
- 3.02512 0 1 tcp 1040 ------- 0 0.0 5.0 63 112
r 3.03344 1 0 ack 40 ------- 0 5.0 0.0 61 110
+ 3.03344 0 1 tcp 1040 ------- 0 0.0 5.0 65 114
+ 3.03344 0 1 tcp 1040 ------- 0 0.0 5.0 66 115
- 3.03344 0 1 tcp 1040 ------- 0 0.0 5.0 64 113
r 3.03512 0 1 tcp 1040 ------- 0 0.0 5.0 62 111
+ 3.03512 1 5 tcp 1040 ------- 0 0.0 5.0 62 111
- 3.03512 1 5 tcp 1040 ------- 0 0.0 5.0 62 111
- 3.04176 0 1 tcp 1040 ------- 0 0.0 5.0 65 114
r 3.04344 0 1 tcp 1040 ------- 0 0.0 5.0 63 112
+ 3.04344 1 5 tcp 1040 ------- 0 0.0 5.0 63 112
- 3.04344 1 5 tcp 1040 ------- 0 0.0 5.0 63 112
- 3.05008 0 1 tcp 1040 ------- 0 0.0 5.0 66 115
r 3.05176 0 1 tcp 1040 ------- 0 0.0 5.0 64 113
+ 3.05176 1 5 tcp 1040 ------- 0 0.0 5.0 64 113
- 3.05176 1 5 tcp 1040 ------- 0 0.0 5.0 64 113
r 3.05344 1 5 tcp 1040 ------- 0 0.0 5.0 62 111
r 3.06008 0 1 tcp 1040 ------- 0 0.0 5.0 65 114
+ 3.06008 1 5 tcp 1040 ------- 0 0.0 5.0 65 114
- 3.06008 1 5 tcp 1040 ------- 0 0.0 5.0 65 114
r 3.06176 1 5 tcp 1040 ------- 0 0.0 5.0 63 112
+ 3.06176 5 1 ack 40 ------- 0 5.0 0.0 63 116
- 3.06176 5 1 ack 40 ------- 0 5.0 0.0 63 116
r 3.0684 0 1 tcp 1040 ------- 0 0.0 5.0 66 115
+ 3.0684 1 5 tcp 1040 ------- 0 0.0 5.0 66 115
- 3.0684 1 5 tcp 1040 ------- 0 0.0 5.0 66 115
r 3.07008 1 5 tcp 1040 ------- 0 0.0 5.0 64 113
r 3.07208 5 1 ack 40 ------- 0 5.0 0.0 63 116
+ 3.07208 1 0 ack 40 ------- 0 5.0 0.0 63 116
- 3.07208 1 0 ack 40 ------- 0 5.0 0.0 63 116
r 3.0784 1 5 tcp 1040 ------- 0 0.0 5.0 65 114
+ 3.0784 5 1 ack 40 ------- 0 5.0 0.0 65 117
- 3.0784 5 1 ack 40 ------- 0 5.0 0.0 65 117
r 3.0824 1 0 ack 40 ------- 0 5.0 0.0 63 116
+ 3.0824 0 1 tcp 1040 ------- 0 0.0 5.0 67 118
- 3.0824 0 1 tcp 1040 ------- 0 0.0 5.0 67 118
+ 3.0824 0 1 tcp 1040 ------- 0 0.0 5.0 68 119
r 3.08672 1 5 tcp 1040 ------- 0 0.0 5.0 66 115
r 3.08872 5 1 ack 40 ------- 0 5.0 0.0 65 117
+ 3.08872 1 0 ack 40 ------- 0 5.0 0.0 65 117
- 3.08872 1 0 ack 40 ------- 0 5.0 0.0 65 117
- 3.09072 0 1 tcp 1040 ------- 0 0.0 5.0 68 119
r 3.09904 1 0 ack 40 ------- 0 5.0 0.0 65 117
+ 3.09904 0 1 tcp 1040 ------- 0 0.0 5.0 69 120
+ 3.09904 0 1 tcp 1040 ------- 0 0.0 5.0 70 121
- 3.09904 0 1 tcp 1040 ------- 0 0.0 5.0 69 120
r 3.10072 0 1 tcp 1040 ------- 0 0.0 5.0 67 118
+ 3.10072 1 5 tcp 1040 ------- 0 0.0 5.0 67 118
- 3.10072 1 5 tcp 1040 ------- 0 0.0 5.0 67 118
- 3.10736 0 1 tcp 1040 ------- 0 0.0 5.0 70 121
r 3.10904 0 1 tcp 1040 ------- 0 0.0 5.0 68 119